# vtk DataFile Version 2.0
Timestep 0
ASCII
DATASET STRUCTURED_POINTS
DIMENSIONS 400 50 1
ASPECT_RATIO 1 1 1
ORIGIN 0 0 0
POINT_DATA 20000
SCALARS magnitude float 1
LOOKUP_TABLE default
1.00008
1.00172
1.00336
1.00501
1.00666
1.0083
1.00994
1.01226
1.0148
1.01733
1.01987
1.02239
1.02493
1.02836
1.03257
1.03679
1.041
1.04522
1.04944
1.05388
1.05886
1.06384
1.0688
1.07378
1.07875
1.0835
1.08479
1.08609
1.08738
1.0887
1.09
1.09131
1.09067
1.08961
1.08855
1.0875
1.08644
1.08539
1.08509
1.08531
1.08553
1.08575
1.08598
1.0862
1.08557
1.08342
1.08128
1.07915
1.07701
1.07488
1.07231
1.06658
1.06084
1.05511
1.04939
1.04366
1.03793
1.03387
1.03001
1.02616
1.02231
1.01845
1.01461
1.0144
1.01611
1.01782
1.01953
1.02125
1.02296
1.02566
1.02972
1.03378
1.03784
1.04189
1.04595
1.04958
1.05134
1.05311
1.05467
1.05341
1.05216
1.0509
1.0473
1.04358
1.03985
1.03612
1.03241
1.02868
1.02579
1.02323
1.02067
1.01932
1.01877
1.01823
1.01846
1.01952
1.02058
1.02256
1.0261
1.02964
1.03325
1.03707
1.04089
1.04449
1.0467
1.04891
1.05109
1.05076
1.05043
1.0501
1.04809
1.04589
1.0437
1.04127
1.03879
1.03631
1.0342
1.03229
1.03038
1.0291
1.02836
1.02763
1.02777
1.02909
1.03039
1.03217
1.03496
1.03774
1.04051
1.04322
1.04593
1.0485
1.04971
1.05091
1.05212
1.05139
1.05059
1.04979
1.04802
1.04609
1.04414
1.04204
1.03989
1.03773
1.03595
1.03441
1.03286
1.03215
1.03231
1.03247
1.03332
1.03532
1.03731
1.03952
1.04238
1.04523
1.04803
1.05041
1.05281
1.05517
1.05591
1.05664
1.05738
1.05627
1.05498
1.05369
1.05131
1.04864
1.04597
1.04338
1.04081
1.03825
1.03653
1.03549
1.03445
1.03431
1.0353
1.0363
1.0378
1.04039
1.04299
1.04568
1.04877
1.05187
1.0549
1.05722
1.05955
1.06189
1.06248
1.06301
1.06355
1.06231
1.06078
1.05924
1.05672
1.05384
1.05096
1.04801
1.04503
1.04204
1.03972
1.03809
1.03646
1.03577
1.0366
1.03743
1.0388
1.04166
1.04453
1.04748
1.05091
1.05435
1.05777
1.06036
1.06295
1.06555
1.06639
1.06708
1.06776
1.06671
1.06522
1.06372
1.06128
1.0584
1.05551
1.05258
1.04962
1.04666
1.04426
1.0426
1.04093
1.03999
1.04055
1.0411
1.04207
1.04456
1.04705
1.04962
1.0529
1.05617
1.05945
1.06216
1.06486
1.06757
1.06873
1.06963
1.07054
1.0698
1.06848
1.06717
1.06494
1.06215
1.05936
1.05653
1.05367
1.0508
1.04843
1.04684
1.04525
1.04421
1.04466
1.0451
1.04584
1.04811
1.05038
1.05267
1.05567
1.05868
1.06168
1.06417
1.06664
1.0691
1.07034
1.07127
1.0722
1.07178
1.07074
1.0697
1.06786
1.06541
1.06296
1.06044
1.05783
1.0552
1.05296
1.05147
1.04998
1.0489
1.04929
1.04969
1.05024
1.05221
1.05417
1.05614
1.05883
1.06153
1.06423
1.06681
1.06917
1.0711
1.07248
1.07347
1.07365
1.07304
1.07197
1.07091
1.06928
1.06711
1.06494
1.06273
1.06045
1.05817
1.05619
1.05499
1.05378
1.05284
1.05322
1.0536
1.05404
1.05569
1.05734
1.05898
1.06121
1.06348
1.06574
1.06781
1.06983
1.07186
1.07322
1.07416
1.07426
1.07376
1.07283
1.0719
1.07054
1.06867
1.06681
1.06495
1.06309
1.06123
1.05961
1.05876
1.05792
1.05723
1.05775
1.05827
1.05879
1.06029
1.06179
1.0633
1.06501
1.06676
1.0685
1.07002
1.07147
1.07291
1.07373
1.07419
1.07465
1.07438
1.07346
1.07253
1.0713
1.06963
1.06797
1.06637
1.06494
1.06351
1.06225
1.06179
1.06133
1.06094
1.06169
1.06245
1.0632
1.06477
1.06639
1.06801
1.06968
1.07136
1.07304
1.07424
1.07523
1.07623
1.07659
1.07652
1.07644
1.07597
1.07503
1.0741
1.073
1.07159
1.07019
1.06892
1.06811
1.0673
1.06658
1.06656
1.06654
1.06653
1.00008
1.00172
1.00336
1.00501
1.00666
1.0083
1.00994
1.01228
1.01483
1.01739
1.01994
1.02249
1.02505
1.02853
1.03283
1.03714
1.04144
1.04575
1.05006
1.0546
1.05972
1.06483
1.06995
1.07506
1.08018
1.08507
1.08633
1.08761
1.08889
1.09018
1.09147
1.09277
1.09206
1.09093
1.0898
1.08867
1.08754
1.08641
1.08611
1.08638
1.08665
1.08692
1.08719
1.08746
1.0869
1.08485
1.08281
1.08078
1.07875
1.07672
1.07422
1.06829
1.06236
1.05643
1.0505
1.04457
1.03865
1.03419
1.02993
1.02566
1.0214
1.01714
1.01288
1.01271
1.01468
1.01666
1.01864
1.02061
1.0226
1.02573
1.03041
1.03508
1.03976
1.04445
1.04913
1.05308
1.05387
1.05466
1.05537
1.05471
1.05406
1.05341
1.04932
1.04505
1.04078
1.03652
1.03225
1.02799
1.02514
1.02285
1.02056
1.01938
1.01893
1.01849
1.01887
1.02013
1.02139
1.02355
1.02726
1.03096
1.03472
1.03859
1.04247
1.0461
1.04818
1.05027
1.05231
1.05176
1.05122
1.05068
1.04852
1.04619
1.04385
1.04137
1.03884
1.03632
1.03423
1.03235
1.03048
1.02929
1.02869
1.02808
1.02834
1.02975
1.03115
1.03302
1.03589
1.03876
1.04163
1.04448
1.04733
1.05006
1.05131
1.05258
1.05384
1.05292
1.0519
1.05089
1.04896
1.04685
1.04473
1.04247
1.04014
1.03782
1.03597
1.03443
1.03289
1.03219
1.03234
1.03249
1.03331
1.03522
1.03712
1.0393
1.04225
1.04518
1.04809
1.0508
1.05351
1.05617
1.05715
1.05813
1.0591
1.05795
1.05659
1.05521
1.0526
1.04966
1.04673
1.04393
1.04121
1.03849
1.03666
1.03553
1.0344
1.03417
1.0351
1.03603
1.03742
1.03981
1.0422
1.04475
1.04796
1.05117
1.05433
1.05703
1.05972
1.06241
1.06331
1.06416
1.065
1.06381
1.06228
1.06074
1.05808
1.05501
1.05193
1.04878
1.04558
1.04237
1.0399
1.03815
1.03642
1.03561
1.03628
1.03697
1.03819
1.04092
1.04364
1.04649
1.05002
1.05355
1.05707
1.06
1.06294
1.06587
1.06701
1.06798
1.06895
1.068
1.06657
1.06513
1.0626
1.05955
1.05649
1.05337
1.05018
1.047
1.04442
1.04257
1.04072
1.03961
1.04001
1.04041
1.04126
1.04376
1.04625
1.04885
1.0523
1.05575
1.0592
1.06219
1.06517
1.06814
1.0695
1.07059
1.07167
1.07098
1.06969
1.06838
1.06606
1.06315
1.06024
1.05726
1.05421
1.05116
1.04862
1.04686
1.04511
1.04394
1.04428
1.04462
1.04527
1.04754
1.04981
1.05212
1.05528
1.05845
1.06161
1.06436
1.06708
1.0698
1.07118
1.07224
1.07331
1.07291
1.07184
1.07078
1.06885
1.06626
1.06367
1.06099
1.05821
1.05544
1.05307
1.0515
1.04993
1.0488
1.04919
1.04958
1.05013
1.05214
1.05414
1.05614
1.05895
1.06177
1.06459
1.06697
1.06918
1.07111
1.0725
1.07362
1.07444
1.07406
1.07298
1.07189
1.07017
1.06784
1.0655
1.06313
1.06071
1.05828
1.05617
1.05489
1.05361
1.05261
1.05302
1.05342
1.05389
1.05566
1.05742
1.0592
1.06161
1.06407
1.06653
1.06867
1.07073
1.07278
1.07376
1.0743
1.07505
1.07481
1.07385
1.07289
1.07143
1.0694
1.06736
1.06533
1.06331
1.0613
1.05953
1.05858
1.05764
1.05686
1.05741
1.05797
1.05852
1.06019
1.06187
1.06355
1.06551
1.06751
1.06951
1.07119
1.07275
1.07432
1.07515
1.07556
1.07597
1.07562
1.07458
1.07354
1.07217
1.07033
1.06849
1.06673
1.06516
1.06358
1.06218
1.06163
1.06107
1.06059
1.06136
1.06213
1.06291
1.06461
1.06637
1.06815
1.07001
1.07191
1.07381
1.07519
1.07635
1.07751
1.07797
1.07792
1.07788
1.07736
1.07631
1.07526
1.07402
1.07246
1.07089
1.06945
1.06842
1.06739
1.06648
1.06641
1.06634
1.06627
1.00008
1.00172
1.00336
1.00501
1.00666
1.0083
1.00994
1.01229
1.01487
1.01744
1.02002
1.02259
1.02516
1.0287
1.03309
1.03749
1.04188
1.04628
1.05067
1.05531
1.06057
1.06583
1.07109
1.07635
1.08161
1.08662
1.08787
1.08913
1.09039
1.09167
1.09295
1.09423
1.09345
1.09225
1.09105
1.08985
1.08864
1.08744
1.08714
1.08746
1.08777
1.08809
1.08841
1.08873
1.08823
1.08629
1.08435
1.08241
1.08048
1.07857
1.07613
1.07
1.06387
1.05775
1.05162
1.04549
1.03936
1.03452
1.02985
1.02517
1.02051
1.01583
1.01117
1.01102
1.01325
1.0155
1.01774
1.01999
1.02225
1.02579
1.03109
1.0364
1.0417
1.047
1.05231
1.05658
1.0564
1.05623
1.05607
1.05601
1.05597
1.05593
1.05134
1.04653
1.04172
1.0369
1.0321
1.02729
1.02448
1.02246
1.02045
1.01944
1.01909
1.01875
1.01928
1.02074
1.0222
1.02455
1.02842
1.03229
1.03618
1.04011
1.04404
1.04772
1.04966
1.05162
1.05354
1.05277
1.05201
1.05125
1.04895
1.04648
1.044
1.04146
1.0389
1.03633
1.03425
1.03241
1.03057
1.02949
1.02901
1.02854
1.02891
1.03041
1.0319
1.03386
1.03681
1.03978
1.04274
1.04573
1.04874
1.0516
1.05293
1.05424
1.05557
1.05444
1.05322
1.052
1.04989
1.04761
1.04534
1.0429
1.0404
1.0379
1.03599
1.03446
1.03292
1.03222
1.03237
1.03251
1.0333
1.03512
1.03694
1.03907
1.0421
1.04513
1.04817
1.05119
1.0542
1.05718
1.05839
1.05961
1.06083
1.05963
1.05819
1.05674
1.0539
1.05069
1.04748
1.04449
1.04162
1.03874
1.03679
1.03557
1.03435
1.03404
1.0349
1.03576
1.03705
1.03922
1.04141
1.04382
1.04715
1.05048
1.05378
1.05683
1.05988
1.06294
1.06415
1.0653
1.06645
1.06531
1.06378
1.06225
1.05944
1.05618
1.05291
1.04955
1.04612
1.0427
1.04006
1.03822
1.03638
1.03544
1.03597
1.0365
1.03758
1.04016
1.04275
1.0455
1.04913
1.05275
1.05637
1.05965
1.06293
1.06621
1.06763
1.06888
1.07013
1.06928
1.06791
1.06654
1.06391
1.0607
1.05747
1.05416
1.05075
1.04736
1.04457
1.04255
1.04051
1.03924
1.03948
1.03972
1.04045
1.04296
1.04546
1.04807
1.0517
1.05533
1.05895
1.06221
1.06547
1.06873
1.07027
1.07154
1.07281
1.07217
1.07088
1.06958
1.0672
1.06416
1.06112
1.05799
1.05476
1.05153
1.04881
1.0469
1.04498
1.04366
1.0439
1.04414
1.04471
1.04698
1.04925
1.05157
1.0549
1.05823
1.06156
1.06456
1.06751
1.07048
1.07202
1.07322
1.07442
1.07404
1.07295
1.07186
1.06984
1.06711
1.06438
1.06155
1.05861
1.05567
1.05316
1.05153
1.04989
1.0487
1.04908
1.04946
1.05002
1.05206
1.05409
1.05614
1.05907
1.06201
1.06496
1.06739
1.06966
1.07173
1.07321
1.07445
1.07542
1.07508
1.07398
1.07288
1.07106
1.06855
1.06606
1.06353
1.06096
1.05839
1.05617
1.0548
1.05344
1.05238
1.05281
1.05325
1.05375
1.05564
1.05752
1.0594
1.062
1.06465
1.06732
1.06951
1.07162
1.07372
1.07466
1.07517
1.07606
1.07586
1.07487
1.07389
1.07234
1.07012
1.06791
1.06571
1.06354
1.06137
1.05945
1.0584
1.05736
1.05649
1.05708
1.05767
1.05825
1.0601
1.06195
1.0638
1.06602
1.06828
1.07054
1.07237
1.07404
1.07573
1.07657
1.07693
1.0773
1.07686
1.07571
1.07455
1.07305
1.07104
1.06903
1.06711
1.06538
1.06365
1.06212
1.06147
1.06082
1.06024
1.06103
1.06182
1.06262
1.06446
1.06637
1.06828
1.07036
1.07248
1.07459
1.07614
1.07747
1.0788
1.07934
1.07933
1.07931
1.07876
1.07759
1.07642
1.07505
1.07332
1.0716
1.06998
1.06874
1.06749
1.06638
1.06625
1.06613
1.06601
1.00008
1.00172
1.00336
1.00501
1.00666
1.0083
1.00994
1.01232
1.01491
1.0175
1.0201
1.02269
1.02528
1.02888
1.03336
1.03784
1.04232
1.0468
1.05129
1.05603
1.06144
1.06683
1.07223
1.07764
1.08304
1.08818
1.08941
1.09066
1.0919
1.09316
1.09442
1.09569
1.09485
1.09357
1.0923
1.09102
1.08974
1.08847
1.08816
1.08853
1.0889
1.08926
1.08963
1.08999
1.08956
1.08772
1.08588
1.08405
1.08222
1.08041
1.07805
1.07171
1.06539
1.05906
1.05274
1.04641
1.04009
1.03485
1.02977
1.02468
1.0196
1.01452
1.00945
1.00934
1.01183
1.01433
1.01685
1.01937
1.02191
1.02588
1.0318
1.03773
1.04364
1.04957
1.05549
1.06009
1.05893
1.05779
1.05677
1.05731
1.05787
1.05844
1.05336
1.04801
1.04266
1.0373
1.03195
1.0266
1.02384
1.02208
1.02034
1.0195
1.01925
1.01901
1.01968
1.02135
1.02301
1.02554
1.02958
1.03362
1.03765
1.04163
1.04563
1.04933
1.05115
1.05297
1.05476
1.05378
1.0528
1.05183
1.04938
1.04677
1.04416
1.04155
1.03895
1.03635
1.03428
1.03247
1.03067
1.02967
1.02933
1.02899
1.02948
1.03107
1.03266
1.03471
1.03775
1.04079
1.04385
1.047
1.05014
1.05316
1.05453
1.05591
1.05729
1.05596
1.05453
1.0531
1.05081
1.04838
1.04593
1.04332
1.04065
1.03798
1.036
1.03448
1.03295
1.03225
1.0324
1.03254
1.03329
1.03501
1.03675
1.03885
1.04197
1.04509
1.04824
1.05157
1.0549
1.05818
1.05963
1.06109
1.06256
1.06131
1.05979
1.05827
1.0552
1.05172
1.04823
1.04506
1.04202
1.039
1.03692
1.03561
1.0343
1.03391
1.03469
1.03549
1.03667
1.03864
1.04062
1.0429
1.04634
1.04979
1.05323
1.05664
1.06005
1.06346
1.06498
1.06644
1.06791
1.06681
1.06528
1.06374
1.0608
1.05735
1.05388
1.05031
1.04667
1.04303
1.04024
1.03828
1.03633
1.03528
1.03565
1.03604
1.03697
1.03942
1.04187
1.04451
1.04824
1.05196
1.05567
1.0593
1.06292
1.06654
1.06826
1.06978
1.07131
1.07057
1.06926
1.06795
1.06523
1.06184
1.05845
1.05494
1.05133
1.04772
1.04473
1.04252
1.04031
1.03886
1.03895
1.03904
1.03964
1.04216
1.04467
1.0473
1.0511
1.0549
1.05871
1.06224
1.06577
1.06931
1.07105
1.07249
1.07395
1.07336
1.07208
1.07079
1.06834
1.06517
1.06201
1.05872
1.0553
1.0519
1.04901
1.04693
1.04485
1.04338
1.04352
1.04366
1.04414
1.04642
1.0487
1.05103
1.05452
1.05802
1.06152
1.06475
1.06795
1.07117
1.07287
1.07419
1.07552
1.07517
1.07406
1.07294
1.07083
1.06796
1.06509
1.06212
1.05901
1.0559
1.05327
1.05156
1.04984
1.0486
1.04897
1.04935
1.04991
1.05198
1.05406
1.05613
1.05918
1.06226
1.06533
1.0681
1.0707
1.07301
1.07471
1.07602
1.07659
1.07609
1.07498
1.07387
1.07196
1.06928
1.06661
1.06392
1.06122
1.05851
1.05615
1.05472
1.05327
1.05215
1.05261
1.05308
1.05362
1.05561
1.05761
1.05961
1.0624
1.06525
1.0681
1.07037
1.0725
1.07464
1.07595
1.07685
1.07731
1.07691
1.07589
1.07488
1.07323
1.07084
1.06846
1.06609
1.06376
1.06143
1.05938
1.05822
1.05708
1.05613
1.05675
1.05737
1.058
1.06001
1.06203
1.06405
1.06651
1.06903
1.07155
1.07353
1.07534
1.07714
1.07799
1.0783
1.07862
1.0781
1.07683
1.07557
1.07392
1.07174
1.06956
1.06747
1.0656
1.06374
1.06205
1.06131
1.06056
1.0599
1.0607
1.06151
1.06232
1.0643
1.06636
1.06842
1.0707
1.07303
1.07536
1.07711
1.07859
1.08008
1.08071
1.08073
1.08075
1.08015
1.07886
1.07759
1.07609
1.0742
1.07231
1.07052
1.06905
1.06759
1.06627
1.0661
1.06592
1.06575
1.00008
1.00172
1.00336
1.00501
1.00666
1.0083
1.00994
1.01233
1.01494
1.01755
1.02018
1.02279
1.0254
1.02905
1.03362
1.03819
1.04276
1.04733
1.0519
1.05676
1.06229
1.06783
1.07338
1.07892
1.08446
1.08974
1.09096
1.09218
1.09341
1.09465
1.0959
1.09715
1.09624
1.09489
1.09354
1.09219
1.09084
1.08949
1.08919
1.0896
1.09002
1.09043
1.09084
1.09126
1.09089
1.08915
1.08741
1.08568
1.08397
1.08227
1.07997
1.07344
1.06692
1.06039
1.05387
1.04734
1.04082
1.0352
1.0297
1.0242
1.0187
1.01322
1.00774
1.00765
1.01041
1.01317
1.01596
1.01876
1.02158
1.02597
1.03251
1.03905
1.04559
1.05214
1.05868
1.0639
1.06342
1.06296
1.0625
1.062
1.0615
1.06103
1.05539
1.04949
1.0436
1.03771
1.03181
1.02591
1.02253
1.02013
1.01774
1.01664
1.01641
1.01619
1.01724
1.01967
1.0221
1.02555
1.03074
1.03591
1.04107
1.0461
1.05113
1.05579
1.05798
1.06019
1.06234
1.06077
1.0592
1.05763
1.05401
1.05015
1.0463
1.04268
1.03913
1.03558
1.03276
1.03031
1.02787
1.02655
1.02616
1.02578
1.02653
1.0288
1.03108
1.03396
1.03821
1.04201
1.04576
1.04987
1.05378
1.05746
1.05968
1.06129
1.06231
1.06107
1.05997
1.05922
1.05612
1.0526
1.04909
1.04525
1.04131
1.03736
1.03449
1.03231
1.03013
1.02902
1.02904
1.02905
1.02996
1.03235
1.03476
1.03754
1.04139
1.04538
1.04947
1.05383
1.058
1.06199
1.06446
1.0664
1.06772
1.06679
1.06519
1.06279
1.05911
1.05515
1.05139
1.04745
1.04343
1.03941
1.03642
1.03426
1.0321
1.0311
1.03159
1.03209
1.03328
1.03592
1.03822
1.04075
1.04464
1.0489
1.0534
1.05801
1.06247
1.06677
1.0695
1.07163
1.07299
1.07226
1.07079
1.06843
1.06487
1.06078
1.05637
1.052
1.04765
1.04334
1.03992
1.03739
1.03488
1.03338
1.03353
1.0337
1.03448
1.03695
1.03964
1.04261
1.04661
1.05092
1.05544
1.06028
1.0649
1.06932
1.07218
1.07449
1.07607
1.07575
1.07464
1.07256
1.06934
1.06552
1.0612
1.05681
1.05239
1.0481
1.0445
1.04177
1.03905
1.03723
1.03725
1.03728
1.0378
1.04012
1.04292
1.04606
1.05013
1.05442
1.0589
1.06342
1.06774
1.07182
1.07452
1.07668
1.07811
1.07786
1.07685
1.07496
1.0721
1.06862
1.06458
1.06053
1.05649
1.05265
1.04924
1.04652
1.04397
1.04217
1.04225
1.04232
1.04273
1.04485
1.04744
1.05037
1.05419
1.05818
1.06231
1.06641
1.07033
1.07395
1.07635
1.07825
1.07946
1.0793
1.0784
1.07664
1.07409
1.07091
1.06735
1.0637
1.05994
1.05647
1.05339
1.05104
1.04904
1.04762
1.04794
1.04825
1.0488
1.05133
1.05387
1.0564
1.05978
1.06329
1.06697
1.07041
1.07364
1.07649
1.07853
1.08008
1.08061
1.08016
1.0791
1.0773
1.07486
1.07182
1.06851
1.06517
1.06184
1.05872
1.05595
1.05397
1.05251
1.0515
1.0517
1.05212
1.0528
1.05528
1.05777
1.06025
1.06341
1.06669
1.07007
1.07301
1.07576
1.07824
1.07997
1.08123
1.08158
1.08111
1.08005
1.07828
1.07604
1.07324
1.07024
1.06724
1.06429
1.06159
1.05916
1.05747
1.05623
1.05538
1.05574
1.05651
1.0576
1.05981
1.0622
1.06484
1.06779
1.07079
1.0738
1.0764
1.07877
1.08068
1.08181
1.08242
1.08243
1.0818
1.08058
1.07883
1.07674
1.07416
1.07141
1.06869
1.0662
1.06395
1.06197
1.06072
1.05987
1.05933
1.05994
1.06086
1.06205
1.06421
1.06657
1.06914
1.07194
1.07476
1.07751
1.07982
1.08185
1.08344
1.08435
1.08474
1.08449
1.08374
1.0824
1.08065
1.07869
1.07641
1.0741
1.07185
1.06984
1.06802
1.06641
1.06581
1.0655
1.06541
1.00008
1.00172
1.00336
1.00501
1.00666
1.0083
1.00994
1.01234
1.01497
1.01761
1.02025
1.02289
1.02553
1.02923
1.03388
1.03854
1.0432
1.04786
1.05252
1.05748
1.06316
1.06884
1.07452
1.0802
1.08589
1.09129
1.0925
1.0937
1.09491
1.09614
1.09737
1.0986
1.09764
1.09621
1.09479
1.09337
1.09194
1.09052
1.09021
1.09068
1.09114
1.0916
1.09206
1.09252
1.09222
1.09059
1.08895
1.08733
1.08572
1.08412
1.0819
1.07517
1.06845
1.06172
1.05501
1.04829
1.04157
1.03556
1.02964
1.02372
1.01782
1.01192
1.00603
1.00597
1.00898
1.01202
1.01507
1.01815
1.02125
1.02608
1.03324
1.04039
1.04755
1.05471
1.06186
1.06774
1.06804
1.06837
1.06857
1.0669
1.06526
1.06363
1.05742
1.05098
1.04455
1.0381
1.03167
1.02523
1.02118
1.01807
1.01497
1.0136
1.01337
1.01316
1.01462
1.01786
1.0211
1.02551
1.0319
1.0383
1.04464
1.05077
1.05691
1.06258
1.06518
1.06779
1.07035
1.06815
1.06596
1.06379
1.05893
1.05375
1.04858
1.04389
1.03933
1.03477
1.03115
1.02801
1.02487
1.0232
1.02275
1.02232
1.02336
1.02634
1.02934
1.03303
1.03821
1.04308
1.04797
1.05343
1.05843
1.06307
1.06623
1.06825
1.06924
1.06812
1.06695
1.06584
1.06174
1.05708
1.05242
1.0473
1.04201
1.03672
1.03289
1.03
1.02711
1.02558
1.02545
1.02532
1.02642
1.02953
1.03263
1.03618
1.04096
1.04618
1.05163
1.05733
1.06262
1.06757
1.07097
1.07337
1.07463
1.07377
1.07195
1.06872
1.06424
1.05946
1.0549
1.04999
1.04492
1.03986
1.03589
1.03282
1.02976
1.02812
1.0283
1.02849
1.02954
1.03242
1.03522
1.03843
1.04325
1.04877
1.0547
1.06084
1.06663
1.07209
1.0757
1.07844
1.08007
1.07945
1.0778
1.07456
1.07015
1.06517
1.05952
1.05404
1.04869
1.04369
1.0396
1.03645
1.03332
1.03136
1.03129
1.03123
1.03183
1.03423
1.03723
1.04068
1.04537
1.05065
1.05635
1.06225
1.06813
1.07351
1.07769
1.08077
1.08251
1.08263
1.08132
1.07866
1.07473
1.07014
1.06467
1.05915
1.05359
1.04852
1.04425
1.04098
1.03773
1.03552
1.03548
1.03545
1.03591
1.03817
1.04127
1.04491
1.04952
1.05457
1.05999
1.06532
1.07063
1.07547
1.07932
1.08217
1.08377
1.08393
1.08286
1.08043
1.07702
1.07281
1.06791
1.063
1.058
1.05342
1.04927
1.04581
1.04292
1.04092
1.04091
1.04093
1.04128
1.04348
1.04644
1.04997
1.05438
1.05908
1.06408
1.06891
1.07364
1.07784
1.08114
1.08353
1.08481
1.08487
1.08386
1.08154
1.07841
1.07465
1.07028
1.06576
1.06131
1.05725
1.05355
1.05047
1.04817
1.04659
1.04684
1.0471
1.04764
1.05065
1.05367
1.05669
1.06066
1.06488
1.06943
1.07373
1.07768
1.08092
1.08349
1.08521
1.08581
1.08545
1.08421
1.08183
1.07876
1.07512
1.07104
1.06689
1.0628
1.05902
1.05585
1.05323
1.05156
1.05047
1.05048
1.051
1.05194
1.05494
1.05794
1.06094
1.06469
1.06861
1.07273
1.07653
1.08009
1.08309
1.08526
1.08684
1.08695
1.08639
1.08505
1.08264
1.07971
1.07632
1.07261
1.06885
1.06519
1.06189
1.05902
1.05682
1.05546
1.05454
1.05473
1.05563
1.0571
1.05961
1.06246
1.06575
1.06933
1.07295
1.07657
1.0799
1.08293
1.08521
1.0867
1.08764
1.08745
1.08666
1.08533
1.08303
1.08038
1.07727
1.07375
1.07034
1.06715
1.06436
1.06201
1.06028
1.05921
1.0588
1.0593
1.06033
1.06189
1.06431
1.06703
1.07017
1.07354
1.07692
1.08021
1.08312
1.08574
1.08758
1.08878
1.08949
1.08906
1.08813
1.08664
1.08439
1.08191
1.07913
1.07629
1.07349
1.0709
1.06864
1.06667
1.06559
1.06516
1.06524
1.00008
1.00172
1.00336
1.00501
1.00666
1.0083
1.00994
1.01236
1.01502
1.01767
1.02032
1.02298
1.02564
1.0294
1.03415
1.03889
1.04364
1.04839
1.05314
1.0582
1.06402
1.06984
1.07566
1.08149
1.08732
1.09286
1.09403
1.09522
1.09642
1.09763
1.09884
1.10006
1.09903
1.09754
1.09604
1.09454
1.09304
1.09154
1.09124
1.09175
1.09226
1.09277
1.09328
1.09379
1.09356
1.09201
1.09048
1.08897
1.08747
1.08598
1.08383
1.07691
1.06998
1.06307
1.05615
1.04924
1.04232
1.03591
1.02957
1.02324
1.01692
1.01061
1.0043
1.00428
1.00756
1.01086
1.01419
1.01756
1.02095
1.0262
1.03396
1.04173
1.04951
1.05729
1.06506
1.07158
1.07267
1.07378
1.07464
1.07181
1.06901
1.06623
1.05944
1.05247
1.04549
1.03851
1.03154
1.02456
1.01984
1.01602
1.01221
1.01055
1.01033
1.01014
1.012
1.01604
1.02011
1.02548
1.03309
1.04071
1.04823
1.05546
1.0627
1.06938
1.07237
1.0754
1.07836
1.07553
1.07274
1.06996
1.06385
1.05736
1.05087
1.0451
1.03953
1.03396
1.02954
1.02571
1.02187
1.01986
1.01935
1.01886
1.02017
1.02388
1.0276
1.03194
1.03762
1.04391
1.05056
1.05783
1.06436
1.07033
1.07446
1.07719
1.07864
1.07763
1.07576
1.07273
1.06737
1.06157
1.05578
1.04937
1.04272
1.03607
1.03129
1.02769
1.0241
1.02214
1.02186
1.02161
1.02287
1.02669
1.03052
1.0349
1.04081
1.0477
1.05505
1.06246
1.06922
1.07544
1.07955
1.08239
1.08374
1.08258
1.08031
1.07641
1.07087
1.06484
1.05868
1.05255
1.04642
1.0403
1.03537
1.03139
1.02742
1.02514
1.025
1.02489
1.02557
1.02797
1.03153
1.03597
1.04245
1.04978
1.05759
1.06567
1.07316
1.08013
1.08503
1.08835
1.0899
1.08882
1.08661
1.08248
1.07696
1.07073
1.0635
1.05653
1.04979
1.04405
1.03929
1.03552
1.03177
1.02935
1.02904
1.02877
1.02915
1.03134
1.03467
1.03881
1.04477
1.05156
1.05892
1.06651
1.07397
1.08078
1.08629
1.09017
1.09226
1.09247
1.09049
1.08693
1.08172
1.07588
1.06904
1.06206
1.05499
1.04902
1.04401
1.0402
1.03639
1.03381
1.0337
1.03362
1.03407
1.03647
1.03985
1.04392
1.04948
1.05565
1.06235
1.06914
1.07587
1.08205
1.08716
1.09075
1.09274
1.09307
1.0915
1.08842
1.08406
1.07861
1.07258
1.06634
1.05996
1.05417
1.049
1.04475
1.0417
1.03965
1.03958
1.03953
1.03991
1.04247
1.0459
1.04997
1.0553
1.06103
1.06718
1.07326
1.07914
1.08444
1.08881
1.09177
1.09333
1.09341
1.09189
1.08896
1.08494
1.08009
1.0746
1.06885
1.06333
1.05833
1.05374
1.04989
1.04728
1.04556
1.04574
1.04594
1.04648
1.04998
1.05349
1.057
1.06192
1.06721
1.07297
1.07837
1.08342
1.08754
1.0909
1.09296
1.09379
1.09337
1.09165
1.08867
1.08475
1.0801
1.07497
1.0697
1.06454
1.05982
1.05595
1.05261
1.05041
1.04894
1.04889
1.04967
1.05109
1.05459
1.05811
1.06164
1.06629
1.07117
1.07626
1.08117
1.08575
1.08952
1.09215
1.09409
1.09446
1.09376
1.09191
1.08894
1.08522
1.08096
1.07634
1.0716
1.06701
1.06281
1.05927
1.0565
1.0548
1.05361
1.05376
1.05476
1.05645
1.05938
1.06279
1.06679
1.07117
1.07559
1.08001
1.08415
1.08799
1.09097
1.09293
1.0942
1.09398
1.09298
1.09128
1.08837
1.08506
1.08122
1.07704
1.07281
1.06883
1.06531
1.06243
1.06026
1.05884
1.05833
1.05887
1.06003
1.06183
1.06466
1.06786
1.07156
1.07557
1.07963
1.08359
1.08713
1.09034
1.09264
1.09414
1.09506
1.09458
1.09348
1.09168
1.08894
1.0859
1.08247
1.07896
1.0755
1.0723
1.06954
1.06709
1.0655
1.06499
1.0653
1.00009
1.00164
1.00317
1.00471
1.00626
1.00779
1.00933
1.0117
1.01431
1.01694
1.01955
1.02217
1.0248
1.02866
1.03364
1.03861
1.04359
1.04857
1.05355
1.05905
1.06575
1.07246
1.07917
1.08588
1.0926
1.09896
1.09997
1.101
1.10205
1.10311
1.10418
1.10527
1.10328
1.10066
1.09804
1.09542
1.0928
1.09018
1.0899
1.0912
1.09251
1.09382
1.09515
1.09649
1.0973
1.09723
1.09717
1.09686
1.09579
1.09474
1.09277
1.08425
1.07574
1.06722
1.05871
1.0502
1.04169
1.0345
1.02748
1.02048
1.01385
1.00735
1.00087
1.00008
1.00232
1.00463
1.00844
1.01354
1.01867
1.02589
1.03591
1.04595
1.05581
1.06533
1.07485
1.0829
1.08456
1.08627
1.08758
1.08272
1.07791
1.07313
1.06475
1.0562
1.04765
1.03928
1.03095
1.02262
1.01645
1.01113
1.00585
1.00351
1.00316
1.00285
1.00496
1.00963
1.01564
1.02283
1.0318
1.04155
1.0514
1.06102
1.07007
1.0784
1.08372
1.08761
1.09038
1.08805
1.08471
1.08012
1.07266
1.06462
1.05608
1.04788
1.03979
1.0317
1.02541
1.02002
1.01465
1.01156
1.01038
1.01057
1.01231
1.01607
1.02174
1.02842
1.0367
1.04571
1.05489
1.06374
1.0721
1.07924
1.08473
1.08844
1.09014
1.08967
1.08681
1.08266
1.07588
1.06837
1.0602
1.05168
1.04306
1.0346
1.02805
1.02273
1.01744
1.01415
1.01292
1.01329
1.01514
1.01927
1.02525
1.03227
1.04104
1.05017
1.06014
1.06994
1.07891
1.08648
1.09187
1.09509
1.09606
1.09466
1.09122
1.08612
1.07953
1.07205
1.06388
1.05558
1.0473
1.03965
1.03298
1.02708
1.02229
1.01889
1.01726
1.01714
1.01823
1.02148
1.02693
1.03351
1.04211
1.05184
1.06237
1.07298
1.08283
1.09123
1.09746
1.10148
1.10307
1.10205
1.09844
1.09291
1.08592
1.07769
1.06879
1.05991
1.05115
1.04342
1.03684
1.03142
1.02731
1.02437
1.02315
1.02297
1.02374
1.02652
1.03111
1.03676
1.04443
1.05338
1.0632
1.07317
1.08271
1.09126
1.09806
1.10266
1.10496
1.10486
1.10206
1.09729
1.09086
1.08311
1.07457
1.06571
1.05704
1.04933
1.04255
1.03692
1.03277
1.02984
1.02902
1.0292
1.03021
1.03312
1.03747
1.04273
1.04968
1.05779
1.06661
1.07565
1.08442
1.09232
1.09867
1.10292
1.10507
1.10507
1.10271
1.09849
1.09275
1.08585
1.07816
1.07012
1.06215
1.05464
1.04819
1.04261
1.03871
1.03593
1.03517
1.03552
1.03671
1.04001
1.04452
1.04987
1.05647
1.0639
1.07186
1.07987
1.08754
1.09438
1.09987
1.10342
1.1051
1.10484
1.10255
1.09855
1.09323
1.08691
1.07989
1.0727
1.06566
1.05917
1.05345
1.04848
1.04508
1.04261
1.04205
1.04252
1.04379
1.04758
1.05213
1.05733
1.06396
1.07074
1.07795
1.08507
1.0914
1.09684
1.10115
1.10375
1.10468
1.10393
1.10151
1.09752
1.0924
1.08644
1.07989
1.07321
1.06675
1.06082
1.05569
1.05146
1.04828
1.04649
1.04601
1.04707
1.04889
1.0528
1.05724
1.06224
1.06848
1.07494
1.08161
1.08768
1.09352
1.09828
1.10172
1.10368
1.10417
1.10321
1.10079
1.09694
1.09217
1.08679
1.08098
1.07501
1.06924
1.06395
1.05953
1.05602
1.05349
1.05214
1.05205
1.0531
1.05524
1.05856
1.06273
1.06763
1.07329
1.07906
1.0849
1.09025
1.09515
1.09871
1.10145
1.10284
1.10276
1.10143
1.09891
1.09523
1.0908
1.08593
1.08079
1.07561
1.07073
1.06638
1.0628
1.06009
1.05829
1.05749
1.05783
1.05916
1.06144
1.06466
1.0686
1.07308
1.07793
1.08292
1.0878
1.09234
1.09621
1.0992
1.10123
1.10215
1.10179
1.10036
1.09798
1.09469
1.09076
1.08646
1.08201
1.07766
1.07362
1.07007
1.06721
1.06504
1.06422
1.06499
1.00011
1.00154
1.00295
1.00438
1.00581
1.00722
1.00865
1.01095
1.01352
1.01609
1.01867
1.02124
1.02382
1.02781
1.03303
1.03826
1.04349
1.04874
1.05399
1.05996
1.06765
1.07534
1.08304
1.09076
1.09846
1.10575
1.10656
1.10739
1.10826
1.10914
1.11007
1.11101
1.10796
1.10406
1.10017
1.09627
1.09238
1.08849
1.08821
1.09042
1.09263
1.09486
1.09712
1.09939
1.1014
1.10298
1.10458
1.10565
1.10505
1.1045
1.10276
1.09245
1.08214
1.07184
1.06154
1.05125
1.04097
1.03293
1.0252
1.01748
1.01053
1.00385
0.997204
0.995527
0.996544
0.99769
1.00203
1.00909
1.01621
1.02563
1.03817
1.05071
1.06289
1.07425
1.08564
1.09532
1.0975
1.09979
1.10151
1.0945
1.08756
1.0807
1.0706
1.06034
1.05009
1.0402
1.03039
1.02059
1.01282
1.00589
0.998989
0.995909
0.995393
0.994948
0.997259
1.0025
1.01041
1.01945
1.03003
1.04179
1.05395
1.06591
1.077
1.08699
1.09471
1.09992
1.10234
1.1007
1.09705
1.09097
1.08212
1.07245
1.06177
1.05097
1.04014
1.0293
1.02095
1.01388
1.00684
1.00253
1.0005
1.00136
1.00377
1.00818
1.01553
1.02501
1.03624
1.0483
1.06038
1.0717
1.08196
1.09045
1.09664
1.10063
1.10235
1.1015
1.09813
1.09277
1.08469
1.07515
1.06454
1.05382
1.04316
1.03299
1.02463
1.01744
1.01028
1.0055
1.00316
1.00402
1.00652
1.01137
1.01927
1.02951
1.04156
1.05433
1.06758
1.08034
1.0918
1.10123
1.1077
1.11125
1.11184
1.10935
1.10428
1.09738
1.0891
1.07963
1.0693
1.05865
1.04802
1.03844
1.02978
1.02188
1.01608
1.0115
1.00845
1.00835
1.00981
1.01423
1.02158
1.03106
1.04259
1.05548
1.06917
1.08267
1.09507
1.10558
1.11322
1.11789
1.11948
1.11775
1.11277
1.10538
1.09618
1.08567
1.07456
1.06343
1.05251
1.04251
1.03394
1.02659
1.02174
1.01802
1.01587
1.0158
1.01696
1.02066
1.02672
1.03476
1.04511
1.05711
1.07006
1.08295
1.09493
1.10534
1.1133
1.1184
1.12062
1.11986
1.11589
1.10955
1.10127
1.09142
1.08072
1.06976
1.05912
1.04939
1.04067
1.03315
1.02831
1.02476
1.02314
1.02352
1.02505
1.02875
1.0343
1.04156
1.05099
1.06197
1.07382
1.08571
1.09687
1.10658
1.11405
1.1187
1.12064
1.11988
1.11626
1.11042
1.10284
1.09392
1.08417
1.07413
1.06424
1.05503
1.04699
1.04006
1.03497
1.03147
1.03001
1.03062
1.03252
1.03677
1.04243
1.04961
1.05836
1.06831
1.07898
1.08961
1.09949
1.10798
1.11449
1.1184
1.11989
1.11891
1.11542
1.10989
1.10283
1.09461
1.08564
1.07656
1.06773
1.05961
1.05249
1.04652
1.0421
1.03899
1.03766
1.03843
1.04045
1.04487
1.05052
1.05767
1.06623
1.07526
1.08472
1.09399
1.10229
1.10926
1.11457
1.11753
1.11826
1.11682
1.11327
1.10785
1.10116
1.09354
1.08526
1.07684
1.06872
1.06128
1.0549
1.04968
1.04575
1.04342
1.04271
1.0438
1.04616
1.05054
1.05613
1.06286
1.07087
1.07925
1.08773
1.09583
1.10317
1.10919
1.1135
1.11582
1.11616
1.11464
1.11132
1.10623
1.10004
1.09321
1.08587
1.07834
1.07114
1.06458
1.05908
1.05467
1.0515
1.04979
1.04962
1.0508
1.05331
1.0573
1.06245
1.06853
1.07558
1.08296
1.09043
1.09728
1.1033
1.10796
1.11133
1.11306
1.11288
1.11107
1.10775
1.103
1.09733
1.09112
1.08465
1.07823
1.07222
1.06685
1.06243
1.05904
1.05677
1.05574
1.0561
1.05767
1.06041
1.06432
1.06914
1.07465
1.08065
1.08687
1.09294
1.09858
1.10338
1.10707
1.10952
1.11057
1.11
1.10808
1.10498
1.10079
1.09585
1.09046
1.0849
1.07947
1.07445
1.0701
1.06662
1.064
1.06285
1.06349
1.00013
1.00144
1.00274
1.00405
1.00535
1.00666
1.00797
1.0102
1.01273
1.01526
1.01779
1.02032
1.02286
1.02696
1.03244
1.03793
1.04343
1.04894
1.05446
1.06092
1.06959
1.07826
1.08696
1.09565
1.10435
1.11256
1.11315
1.11379
1.11447
1.11519
1.11596
1.11677
1.11263
1.10746
1.10229
1.09712
1.09195
1.08679
1.08653
1.08964
1.09275
1.0959
1.09909
1.10229
1.10549
1.10873
1.112
1.11445
1.11433
1.11427
1.11278
1.10068
1.08859
1.07652
1.06445
1.0524
1.04036
1.03148
1.02301
1.01456
1.00727
1.00038
0.993558
0.990976
0.990768
0.990772
0.995677
1.00471
1.01384
1.02551
1.04058
1.05565
1.07012
1.08327
1.0965
1.10777
1.11045
1.11329
1.11544
1.10629
1.09726
1.08835
1.07653
1.06458
1.05264
1.04123
1.02993
1.01862
1.00925
1.00067
0.992152
0.98831
0.987625
0.98705
0.98952
0.995229
1.00464
1.01541
1.02794
1.04135
1.0554
1.06918
1.08213
1.09351
1.10283
1.10965
1.11308
1.11218
1.10868
1.10201
1.09173
1.08034
1.06756
1.05415
1.04056
1.02697
1.01656
1.00779
0.999047
0.99344
0.990455
0.991716
0.995203
1.00156
1.01102
1.02364
1.03817
1.05369
1.06901
1.08324
1.09569
1.10551
1.1121
1.1158
1.11663
1.11417
1.1092
1.10203
1.09269
1.08127
1.06841
1.05555
1.04291
1.03133
1.02126
1.01218
1.00315
0.996834
0.993335
0.994154
0.997325
1.00386
1.01377
1.02762
1.04346
1.06032
1.07728
1.09324
1.10736
1.11879
1.12639
1.13027
1.13035
1.12648
1.11936
1.11001
1.09914
1.08706
1.07425
1.0612
1.04861
1.03648
1.02558
1.0157
1.00855
1.00279