# vtk DataFile Version 2.0
Timestep 75
ASCII
DATASET STRUCTURED_POINTS
DIMENSIONS 400 50 1
ASPECT_RATIO 1 1 1
ORIGIN 0 0 0
POINT_DATA 20000
SCALARS magnitude float 1
LOOKUP_TABLE default
1.00007
1.00181
1.00354
1.00528
1.00702
1.00876
1.01049
1.01282
1.01532
1.01781
1.02031
1.02281
1.02531
1.0287
1.03287
1.03704
1.0412
1.04538
1.04955
1.05395
1.05892
1.06388
1.06884
1.07381
1.07877
1.0835
1.08468
1.08587
1.08707
1.08827
1.08948
1.09069
1.08991
1.08872
1.08752
1.08633
1.08513
1.08394
1.08357
1.08378
1.08398
1.08419
1.08439
1.0846
1.08401
1.08201
1.07999
1.078
1.076
1.07402
1.07158
1.06598
1.06038
1.05478
1.04919
1.04359
1.03799
1.03391
1.03001
1.0261
1.02221
1.01832
1.01443
1.01414
1.01575
1.01738
1.01899
1.02061
1.02223
1.02486
1.02886
1.03287
1.03688
1.04088
1.04489
1.04851
1.05046
1.05241
1.05416
1.05317
1.05219
1.05122
1.04775
1.04416
1.04057
1.03698
1.03338
1.02979
1.02688
1.02425
1.02163
1.02013
1.01939
1.01866
1.01872
1.01962
1.02054
1.02237
1.0258
1.02923
1.03274
1.03656
1.04038
1.044
1.04632
1.04864
1.05093
1.05072
1.05051
1.05031
1.04837
1.04622
1.04408
1.04168
1.0392
1.03672
1.0346
1.03266
1.03073
1.02943
1.02867
1.02791
1.02802
1.02929
1.03054
1.03228
1.03502
1.03774
1.04048
1.04319
1.0459
1.04849
1.04975
1.051
1.05226
1.05156
1.05078
1.05
1.04822
1.04627
1.0443
1.04219
1.04002
1.03786
1.03602
1.0344
1.03277
1.03197
1.03199
1.03202
1.03278
1.03473
1.03668
1.03887
1.04174
1.0446
1.04741
1.04981
1.05222
1.0546
1.05541
1.05623
1.05704
1.05603
1.05484
1.05365
1.05134
1.04872
1.04611
1.0435
1.04089
1.03828
1.03648
1.03533
1.03419
1.03393
1.03479
1.03565
1.03701
1.03944
1.04186
1.04441
1.04742
1.05043
1.05339
1.05576
1.05813
1.06051
1.06121
1.06185
1.0625
1.06141
1.06002
1.05863
1.05624
1.05349
1.05075
1.04789
1.04497
1.04204
1.03973
1.03804
1.03636
1.0356
1.03632
1.03705
1.03833
1.04112
1.04393
1.04682
1.05024
1.05367
1.05708
1.05971
1.06233
1.06496
1.06587
1.06662
1.06737
1.06636
1.06493
1.06348
1.06106
1.05818
1.05529
1.05231
1.04925
1.04619
1.04366
1.04182
1.03998
1.03889
1.03936
1.03983
1.04072
1.04324
1.04576
1.04836
1.05169
1.05503
1.05836
1.06114
1.0639
1.06668
1.06794
1.06896
1.06997
1.06934
1.06814
1.06695
1.06479
1.06205
1.05931
1.0565
1.0536
1.0507
1.04827
1.04658
1.04489
1.04375
1.04407
1.04438
1.04498
1.04707
1.04917
1.05129
1.05418
1.05707
1.05996
1.06274
1.06535
1.06764
1.06894
1.07001
1.07108
1.07078
1.06987
1.06896
1.06721
1.06483
1.06244
1.05994
1.05729
1.05464
1.05236
1.05077
1.04919
1.04801
1.04827
1.04853
1.04896
1.05084
1.05272
1.05461
1.05713
1.05966
1.06219
1.06469
1.0671
1.06931
1.07105
1.07241
1.07286
1.07281
1.07239
1.07116
1.06942
1.06721
1.06499
1.06277
1.06056
1.05834
1.0564
1.05515
1.05391
1.05292
1.05324
1.05356
1.05394
1.05553
1.05712
1.05872
1.06086
1.06305
1.06524
1.06733
1.06939
1.07146
1.07274
1.07356
1.07357
1.07308
1.07223
1.07138
1.07006
1.06817
1.06629
1.06441
1.06257
1.06072
1.05909
1.05824
1.05738
1.05667
1.05719
1.05771
1.05823
1.0598
1.06138
1.06296
1.06478
1.06663
1.06848
1.07009
1.07164
1.07318
1.07409
1.07465
1.0752
1.07502
1.07417
1.07332
1.07215
1.07053
1.0689
1.06733
1.06591
1.06448
1.06322
1.06272
1.06223
1.06181
1.06253
1.06326
1.06399
1.06559
1.06725
1.06891
1.07069
1.0725
1.07431
1.07567
1.07686
1.07804
1.07861
1.07875
1.07889
1.07862
1.07789
1.07715
1.07623
1.07498
1.07372
1.07256
1.07171
1.07085
1.07009
1.06997
1.06986
1.06974
1.00007
1.0018
1.00352
1.00526
1.00698
1.00871
1.01044
1.01277
1.0153
1.01783
1.02035
1.02288
1.02541
1.02886
1.03313
1.03739
1.04165
1.04592
1.0502
1.05471
1.05981
1.06492
1.07003
1.07514
1.08025
1.08511
1.08628
1.08746
1.08866
1.08985
1.09105
1.09225
1.0914
1.09013
1.08886
1.08758
1.08631
1.08504
1.08467
1.08492
1.08517
1.08542
1.08567
1.08593
1.08541
1.08354
1.08167
1.0798
1.07794
1.07609
1.07374
1.06789
1.06204
1.0562
1.05035
1.0445
1.03865
1.03421
1.02992
1.02566
1.02138
1.01711
1.01284
1.01257
1.0144
1.01622
1.01805
1.01989
1.02173
1.02475
1.02942
1.03407
1.03873
1.04339
1.04805
1.05203
1.05304
1.05407
1.05499
1.05455
1.05412
1.05369
1.04974
1.04561
1.04149
1.03736
1.03324
1.02911
1.02622
1.02382
1.02141
1.02008
1.01947
1.01886
1.01908
1.0202
1.02132
1.02335
1.02694
1.03053
1.0342
1.03808
1.04196
1.04563
1.04782
1.05003
1.0522
1.05178
1.05136
1.05094
1.04884
1.04654
1.04425
1.04176
1.03923
1.0367
1.03459
1.03268
1.03078
1.02957
1.02894
1.02831
1.02854
1.02991
1.03126
1.03308
1.03589
1.0387
1.04152
1.04439
1.04726
1.05001
1.05133
1.05267
1.054
1.05312
1.05215
1.05117
1.04923
1.0471
1.04496
1.04267
1.04033
1.03799
1.03608
1.03447
1.03284
1.03204
1.03207
1.03211
1.03284
1.03469
1.03654
1.03867
1.04158
1.04449
1.04736
1.0501
1.05283
1.05551
1.05659
1.05767
1.05875
1.05772
1.05647
1.05522
1.05268
1.04979
1.04691
1.04409
1.04132
1.03855
1.03663
1.03539
1.03415
1.03379
1.03456
1.03533
1.03658
1.03884
1.0411
1.04353
1.04665
1.04977
1.05286
1.05558
1.05831
1.06103
1.06205
1.06301
1.06398
1.06294
1.06157
1.06019
1.05766
1.05472
1.05177
1.0487
1.04555
1.0424
1.03993
1.03813
1.03634
1.03546
1.03607
1.03668
1.03781
1.04044
1.04306
1.04582
1.04932
1.05283
1.05632
1.05928
1.06225
1.06521
1.06642
1.06746
1.06851
1.06762
1.06625
1.06487
1.06237
1.05933
1.05628
1.05312
1.04987
1.04661
1.04391
1.0419
1.0399
1.03866
1.03896
1.03927
1.04003
1.04248
1.04495
1.0475
1.05096
1.05443
1.05789
1.06094
1.064
1.06705
1.06853
1.06977
1.071
1.07045
1.06928
1.06812
1.0659
1.06304
1.06019
1.05721
1.05412
1.05104
1.04844
1.04656
1.0447
1.0434
1.04361
1.04382
1.04433
1.04646
1.04858
1.05073
1.05382
1.05691
1.06
1.0628
1.06557
1.06832
1.06983
1.07105
1.07227
1.07201
1.07106
1.07013
1.06827
1.06572
1.06318
1.06051
1.0577
1.05489
1.05246
1.05078
1.04912
1.04787
1.04813
1.04838
1.0488
1.05071
1.05263
1.05454
1.05724
1.05994
1.06265
1.06497
1.0672
1.06934
1.07103
1.07235
1.07281
1.07278
1.07243
1.07167
1.07013
1.06783
1.06553
1.06321
1.06085
1.05849
1.05642
1.05509
1.05377
1.05272
1.05307
1.05342
1.05383
1.05553
1.05723
1.05894
1.06127
1.06365
1.06603
1.06817
1.07025
1.07232
1.07324
1.07369
1.07438
1.07415
1.07325
1.07236
1.07093
1.06889
1.06683
1.0648
1.06278
1.06077
1.059
1.05804
1.05708
1.05628
1.05683
1.05737
1.05792
1.05965
1.06139
1.06315
1.06521
1.06731
1.06941
1.0712
1.07288
1.07456
1.0755
1.07602
1.07655
1.07629
1.07533
1.07436
1.07306
1.07126
1.06946
1.06772
1.06614
1.06457
1.06316
1.06257
1.06197
1.06146
1.0622
1.06294
1.06367
1.06541
1.06722
1.06902
1.07101
1.07303
1.07506
1.07662
1.07797
1.07933
1.08
1.08018
1.08036
1.08006
1.07922
1.07837
1.07732
1.0759
1.07448
1.07315
1.0721
1.07105
1.07011
1.06989
1.06968
1.06946
1.00007
1.00178
1.0035
1.00522
1.00694
1.00865
1.01038
1.01273
1.01529
1.01784
1.0204
1.02296
1.02551
1.02903
1.03339
1.03775
1.04211
1.04647
1.05083
1.05546
1.06071
1.06597
1.07122
1.07647
1.08173
1.08674
1.0879
1.08906
1.09024
1.09142
1.09261
1.0938
1.09289
1.09154
1.09019
1.08884
1.08749
1.08613
1.08576
1.08606
1.08636
1.08666
1.08695
1.08725
1.08681
1.08507
1.08333
1.0816
1.07988
1.07816
1.0759
1.06981
1.0637
1.05761
1.05152
1.04542
1.03933
1.0345
1.02985
1.0252
1.02054
1.0159
1.01126
1.011
1.01303
1.01507
1.01712
1.01918
1.02124
1.02467
1.02998
1.03529
1.04059
1.0459
1.05122
1.05554
1.05563
1.05573
1.05583
1.05593
1.05604
1.05616
1.05173
1.04707
1.04241
1.03776
1.0331
1.02844
1.02557
1.02338
1.0212
1.02004
1.01954
1.01906
1.01944
1.02077
1.0221
1.02433
1.02808
1.03183
1.03564
1.0396
1.04354
1.04725
1.04933
1.05142
1.05348
1.05284
1.05221
1.05159
1.04932
1.04687
1.04441
1.04185
1.03926
1.03668
1.03457
1.03269
1.03083
1.02972
1.02921
1.02872
1.02906
1.03053
1.03198
1.03389
1.03677
1.03965
1.04256
1.04559
1.04862
1.05152
1.05293
1.05433
1.05574
1.05467
1.05351
1.05236
1.05023
1.04793
1.04563
1.04317
1.04064
1.03812
1.03614
1.03453
1.03291
1.03211
1.03216
1.0322
1.03289
1.03464
1.0364
1.03846
1.04141
1.04436
1.04733
1.05038
1.05342
1.05644
1.05777
1.05912
1.06046
1.0594
1.0581
1.05679
1.05403
1.05087
1.0477
1.04469
1.04176
1.03882
1.03678
1.03544
1.03411
1.03366
1.03433
1.03501
1.03614
1.03824
1.04033
1.04267
1.04589
1.04911
1.05232
1.0554
1.05847
1.06156
1.06289
1.06417
1.06546
1.06448
1.06312
1.06176
1.05908
1.05593
1.05279
1.04951
1.04613
1.04277
1.04013
1.03823
1.03632
1.03533
1.03581
1.0363
1.03731
1.03975
1.04219
1.04481
1.0484
1.05198
1.05556
1.05886
1.06217
1.06548
1.06698
1.06831
1.06965
1.06887
1.06757
1.06627
1.06367
1.06048
1.05728
1.05394
1.05049
1.04704
1.04416
1.04199
1.03982
1.03842
1.03856
1.0387
1.03933
1.04173
1.04413
1.04665
1.05024
1.05383
1.05742
1.06075
1.06409
1.06741
1.06912
1.07058
1.07203
1.07156
1.07043
1.06929
1.06701
1.06403
1.06106
1.05793
1.05466
1.05139
1.04859
1.04655
1.0445
1.04305
1.04315
1.04326
1.04369
1.04584
1.04799
1.05018
1.05347
1.05676
1.06005
1.06306
1.06604
1.06904
1.07073
1.0721
1.07347
1.07323
1.07225
1.07128
1.06932
1.06663
1.06393
1.0611
1.05812
1.05513
1.05255
1.0508
1.04905
1.04773
1.04798
1.04823
1.04865
1.0506
1.05254
1.05449
1.05735
1.06024
1.06312
1.06553
1.06784
1.07006
1.07176
1.0731
1.07359
1.07355
1.07317
1.07242
1.07083
1.06844
1.06606
1.06364
1.06113
1.05864
1.05645
1.05503
1.05363
1.05252
1.0529
1.05328
1.05372
1.05554
1.05734
1.05915
1.06166
1.06424
1.06681
1.069
1.0711
1.0732
1.07409
1.07453
1.0754
1.07522
1.07428
1.07335
1.07181
1.06959
1.06737
1.06517
1.063
1.06083
1.0589
1.05784
1.05678
1.05589
1.05646
1.05704
1.05761
1.05951
1.06141
1.06332
1.06563
1.06799
1.07036
1.07231
1.07413
1.07594
1.07691
1.0774
1.0779
1.07756
1.07649
1.07541
1.07398
1.072
1.07002
1.06812
1.06639
1.06465
1.0631
1.06241
1.06172
1.06111
1.06186
1.06261
1.06337
1.06524
1.06719
1.06913
1.07133
1.07357
1.07582
1.07756
1.07909
1.08062
1.08139
1.08161
1.08183
1.0815
1.08054
1.07958
1.0784
1.07682
1.07523
1.07373
1.07249
1.07125
1.07012
1.06981
1.0695
1.06918
1.00007
1.00177
1.00348
1.00519
1.0069
1.0086
1.01031
1.01269
1.01528
1.01786
1.02045
1.02303
1.02563
1.0292
1.03365
1.03811
1.04256
1.04702
1.05147
1.05621
1.0616
1.06701
1.0724
1.0778
1.08321
1.08835
1.0895
1.09065
1.09182
1.093
1.09417
1.09536
1.09438
1.09295
1.09152
1.09009
1.08866
1.08723
1.08686
1.0872
1.08754
1.08789
1.08823
1.08858
1.08822
1.0866
1.085
1.0834
1.08181
1.08024
1.07807
1.07172
1.06538
1.05903
1.05269
1.04635
1.04
1.03482
1.02978
1.02475
1.01972
1.0147
1.00968
1.00942
1.01167
1.01393
1.0162
1.01847
1.02076
1.0246
1.03055
1.03651
1.04247
1.04843
1.05438
1.05906
1.05822
1.05739
1.05667
1.05731
1.05797
1.05863
1.05372
1.04853
1.04334
1.03815
1.03297
1.02777
1.0249
1.02295
1.02099
1.01999
1.01962
1.01925
1.01981
1.02135
1.02289
1.0253
1.02922
1.03315
1.0371
1.04111
1.04513
1.04887
1.05085
1.05281
1.05476
1.0539
1.05306
1.05222
1.04979
1.04719
1.04458
1.04194
1.0393
1.03665
1.03455
1.03271
1.03088
1.02985
1.02948
1.02912
1.02959
1.03115
1.0327
1.0347
1.03765
1.0406
1.0436
1.04679
1.04999
1.05304
1.05452
1.05599
1.05747
1.05623
1.05487
1.05353
1.05123
1.04877
1.04629
1.04365
1.04095
1.03825
1.0362
1.03459
1.03297
1.03218
1.03224
1.03229
1.03295
1.0346
1.03626
1.03826
1.04125
1.04425
1.04729
1.05067
1.05403
1.05735
1.05896
1.06056
1.06217
1.06109
1.05973
1.05837
1.05537
1.05194
1.0485
1.0453
1.04219
1.0391
1.03693
1.0355
1.03407
1.03353
1.03411
1.03469
1.0357
1.03764
1.03958
1.0418
1.04513
1.04845
1.05179
1.05522
1.05865
1.06208
1.06373
1.06533
1.06693
1.06601
1.06467
1.06332
1.06051
1.05715
1.05381
1.05032
1.04672
1.04314
1.04033
1.03831
1.0363
1.0352
1.03556
1.03593
1.0368
1.03906
1.04133
1.04381
1.04748
1.05114
1.0548
1.05845
1.06209
1.06574
1.06754
1.06916
1.07079
1.07013
1.06889
1.06766
1.06498
1.06162
1.05827
1.05475
1.05111
1.04747
1.0444
1.04207
1.03975
1.03818
1.03816
1.03814
1.03863
1.04097
1.04332
1.04579
1.04952
1.05324
1.05696
1.06057
1.06418
1.06779
1.06972
1.07138
1.07306
1.07267
1.07157
1.07047
1.06812
1.06503
1.06193
1.05865
1.05519
1.05174
1.04876
1.04653
1.04432
1.0427
1.0427
1.0427
1.04305
1.04522
1.0474
1.04963
1.05312
1.05662
1.06011
1.06354
1.0668
1.06981
1.07162
1.07314
1.07467
1.07445
1.07344
1.07244
1.07039
1.06753
1.06468
1.06169
1.05853
1.05537
1.05266
1.05081
1.04897
1.0476
1.04784
1.04808
1.04851
1.05048
1.05245
1.05442
1.05747
1.06053
1.06359
1.06642
1.06912
1.07153
1.07336
1.07477
1.07531
1.07522
1.0747
1.07342
1.07152
1.06906
1.0666
1.06406
1.06142
1.05879
1.05647
1.05498
1.05349
1.05232
1.05273
1.05314
1.05362
1.05554
1.05745
1.05937
1.06207
1.06483
1.06759
1.06983
1.07194
1.07406
1.07534
1.0762
1.07666
1.07629
1.0753
1.07432
1.07269
1.0703
1.06792
1.06555
1.06321
1.06088
1.05882
1.05764
1.05648
1.0555
1.0561
1.0567
1.05731
1.05936
1.06142
1.06349
1.06604
1.06867
1.07129
1.07341
1.07538
1.07734
1.07832
1.07878
1.07924
1.07884
1.07765
1.07647
1.07488
1.07273
1.07058
1.0685
1.06662
1.06474
1.06304
1.06225
1.06146
1.06076
1.06152
1.06228
1.06306
1.06506
1.06715
1.06924
1.07164
1.07411
1.07657
1.07851
1.08022
1.08191
1.08278
1.08304
1.0833
1.08294
1.08187
1.0808
1.07949
1.07775
1.076
1.07433
1.07289
1.07145
1.07014
1.06973
1.06932
1.0689
1.00007
1.00176
1.00347
1.00516
1.00685
1.00855
1.01025
1.01265
1.01526
1.01787
1.02049
1.02311
1.02573
1.02937
1.03392
1.03846
1.04301
1.04757
1.05211
1.05696
1.06251
1.06805
1.07359
1.07914
1.08469
1.08996
1.0911
1.09225
1.09341
1.09457
1.09573
1.09692
1.09587
1.09436
1.09285
1.09135
1.08984
1.08833
1.08795
1.08834
1.08873
1.08912
1.08951
1.08991
1.08962
1.08815
1.08667
1.08521
1.08376
1.08232
1.08024
1.07365
1.06705
1.06046
1.05387
1.04728
1.04069
1.03514
1.02971
1.0243
1.01889
1.01349
1.0081
1.00785
1.01031
1.01278
1.01527
1.01777
1.02029
1.02454
1.03114
1.03774
1.04435
1.05095
1.05755
1.06289
1.06274
1.06261
1.06247
1.06202
1.0616
1.06119
1.05572
1.04999
1.04427
1.03855
1.03283
1.02711
1.02361
1.02098
1.01835
1.01707
1.01668
1.0163
1.01719
1.01945
1.02171
1.02501
1.03007
1.03514
1.04021
1.04531
1.05041
1.05514
1.05755
1.05997
1.06234
1.06094
1.05955
1.05818
1.05459
1.05075
1.04691
1.04325
1.03963
1.03602
1.03314
1.03063
1.02813
1.02675
1.0263
1.02585
1.02654
1.02874
1.03094
1.03377
1.03797
1.0417
1.04539
1.04953
1.05349
1.05725
1.05961
1.06136
1.06253
1.06143
1.06045
1.0598
1.05672
1.05322
1.04971
1.04585
1.04186
1.03787
1.03492
1.03262
1.03032
1.02909
1.02898
1.02887
1.02965
1.0319
1.03416
1.03678
1.04048
1.04435
1.04835
1.05273
1.05697
1.06105
1.06371
1.06582
1.06734
1.0666
1.06521
1.06298
1.0594
1.05552
1.05181
1.04784
1.04375
1.03966
1.03657
1.03427
1.03199
1.03082
1.03107
1.03133
1.03232
1.03486
1.03717
1.03968
1.04333
1.04747
1.05189
1.05648
1.06093
1.06526
1.06817
1.0705
1.07206
1.07154
1.07029
1.06815
1.06474
1.0608
1.05649
1.05217
1.04785
1.04357
1.04013
1.0375
1.03489
1.03332
1.03343
1.03354
1.03425
1.03659
1.03909
1.04184
1.04578
1.05006
1.05458
1.0593
1.0639
1.06839
1.07137
1.0738
1.0755
1.07528
1.07429
1.07231
1.06916
1.06537
1.06107
1.05668
1.05224
1.04789
1.04421
1.04137
1.03853
1.0366
1.0365
1.03642
1.0368
1.03896
1.04157
1.04453
1.04851
1.05271
1.05713
1.06169
1.0661
1.07029
1.07318
1.07556
1.07721
1.07719
1.07638
1.07467
1.07193
1.06854
1.06457
1.06053
1.05641
1.05248
1.04897
1.04606
1.04338
1.04144
1.04136
1.04127
1.04152
1.04355
1.04604
1.04891
1.05274
1.05673
1.0609
1.06513
1.06913
1.07269
1.07519
1.07723
1.07862
1.07862
1.07788
1.07624
1.07376
1.0706
1.06703
1.06333
1.05952
1.05596
1.05278
1.05027
1.04814
1.04659
1.04676
1.04692
1.04732
1.04973
1.05214
1.05455
1.05791
1.06141
1.06512
1.06869
1.07208
1.07509
1.07729
1.07898
1.0796
1.07941
1.07867
1.07688
1.07455
1.07173
1.06861
1.06543
1.06219
1.05915
1.05641
1.05438
1.05284
1.05174
1.05188
1.05225
1.05286
1.05525
1.05763
1.06002
1.06309
1.06627
1.06955
1.07242
1.07508
1.07739
1.07915
1.08053
1.08095
1.08053
1.0795
1.07774
1.07551
1.0727
1.06971
1.06671
1.06374
1.06103
1.05859
1.05686
1.05558
1.05469
1.05501
1.05574
1.0568
1.05902
1.06144
1.06411
1.06716
1.07027
1.07339
1.07616
1.07869
1.08081
1.08213
1.08294
1.08312
1.08262
1.08152
1.07986
1.07784
1.0753
1.07255
1.06982
1.06729
1.065
1.06294
1.06163
1.06071
1.06009
1.06064
1.06152
1.0627
1.06486
1.06724
1.06987
1.07277
1.07573
1.07865
1.08115
1.08341
1.08526
1.08642
1.08708
1.08711
1.08661
1.08552
1.08398
1.08221
1.08009
1.0779
1.07575
1.0738
1.07202
1.07042
1.06955
1.06895
1.06857
1.00007
1.00175
1.00345
1.00513
1.00681
1.00849
1.01019
1.0126
1.01524
1.01789
1.02054
1.02318
1.02583
1.02954
1.03418
1.03882
1.04347
1.04812
1.05277
1.05772
1.06341
1.06909
1.07479
1.08048
1.08617
1.09158
1.09271
1.09384
1.09499
1.09614
1.0973
1.09847
1.09736
1.09577
1.09419
1.0926
1.09101
1.08943
1.08904
1.08948
1.08992
1.09036
1.09079
1.09123
1.09102
1.08968
1.08834
1.08702
1.0857
1.0844
1.08241
1.07558
1.06874
1.06191
1.05507
1.04823
1.0414
1.03547
1.02966
1.02385
1.01806
1.01228
1.00652
1.00628
1.00895
1.01164
1.01436
1.01708
1.01983
1.02449
1.03173
1.03898
1.04623
1.05348
1.06073
1.06674
1.0674
1.06806
1.0686
1.06697
1.06534
1.06375
1.05772
1.05146
1.04521
1.03896
1.0327
1.02645
1.02227
1.01891
1.01556
1.01396
1.01354
1.01313
1.01438
1.01739
1.02042
1.02464
1.03092
1.0372
1.04347
1.04971
1.05594
1.06174
1.06461
1.06751
1.07034
1.06837
1.06642
1.06449
1.05967
1.05454
1.04939
1.04464
1.03999
1.03534
1.03164
1.02842
1.0252
1.02343
1.02288
1.02234
1.02327
1.02613
1.02901
1.03261
1.03779
1.04259
1.04741
1.05289
1.05797
1.06273
1.06607
1.06828
1.06947
1.06854
1.06755
1.06657
1.06254
1.05793
1.05331
1.04818
1.04283
1.03749
1.03356
1.03052
1.02748
1.02579
1.02551
1.02522
1.02613
1.02902
1.03193
1.03528
1.03987
1.04497
1.05035
1.05608
1.06144
1.06654
1.07015
1.07277
1.07427
1.07365
1.07204
1.06901
1.06466
1.06
1.05548
1.05053
1.04538
1.04024
1.03617
1.03297
1.02977
1.02793
1.02784
1.02775
1.02858
1.03131
1.03409
1.03725
1.04175
1.04713
1.05299
1.05911
1.06491
1.07044
1.0743
1.07728
1.07917
1.07882
1.07743
1.07444
1.07023
1.06542
1.05987
1.05442
1.04908
1.04406
1.0399
1.03665
1.03339
1.03133
1.03117
1.03103
1.03153
1.03382
1.03659
1.03983
1.04443
1.04968
1.05539
1.06144
1.06709
1.07245
1.07677
1.08
1.08189
1.08217
1.08102
1.07849
1.07463
1.07009
1.06462
1.0591
1.05352
1.04837
1.044
1.04062
1.03725
1.03493
1.03476
1.03461
1.03493
1.03701
1.03991
1.04337
1.0479
1.05288
1.05826
1.06368
1.06909
1.07407
1.07809
1.08114
1.08294
1.08333
1.08246
1.0802
1.07692
1.07285
1.068
1.06307
1.05801
1.05329
1.04901
1.04536
1.04231
1.04014
1.03996
1.03978
1.03998
1.04205
1.04494
1.0484
1.0528
1.05751
1.06257
1.06747
1.07228
1.07655
1.07992
1.08246
1.08391
1.08419
1.0834
1.08124
1.07819
1.07444
1.07006
1.06548
1.06097
1.05681
1.05297
1.04972
1.04726
1.04554
1.04561
1.0457
1.04608
1.04895
1.05183
1.05471
1.05861
1.06282
1.0674
1.07187
1.07601
1.07948
1.08226
1.08416
1.08496
1.08476
1.08367
1.08145
1.0786
1.0752
1.07131
1.06731
1.06333
1.05962
1.05645
1.0538
1.05203
1.05084
1.05076
1.0512
1.05207
1.05494
1.05782
1.06071
1.06435
1.06815
1.07214
1.07586
1.07929
1.08207
1.08406
1.08583
1.08633
1.08584
1.08452
1.08211
1.07919
1.07581
1.0721
1.06834
1.06466
1.06133
1.05843
1.05618
1.05475
1.05377
1.0539
1.05475
1.05617
1.05867
1.06153
1.06486
1.06852
1.07225
1.07602
1.07953
1.08277
1.08528
1.08702
1.08822
1.08822
1.08761
1.08642
1.08424
1.08167
1.0786
1.07506
1.07159
1.06832
1.06542
1.06296
1.06114
1.05995
1.05944
1.0598
1.06085
1.0624
1.06482
1.06756
1.07076
1.07424
1.07777
1.08124
1.08437
1.08723
1.08935
1.09084
1.09187
1.09175
1.09111
1.08989
1.08788
1.0856
1.08298
1.08026
1.07756
1.07502
1.07283
1.07089
1.06961
1.06878
1.06829
1.00007
1.00174
1.00342
1.0051
1.00677
1.00845
1.01012
1.01256
1.01523
1.01791
1.02058
1.02325
1.02594
1.02971
1.03445
1.03919
1.04393
1.04867
1.05341
1.05848
1.06431
1.07013
1.07597
1.08181
1.08766
1.0932
1.09431
1.09543
1.09657
1.09771
1.09886
1.10003
1.09885
1.09718
1.09552
1.09385
1.09219
1.09052
1.09014
1.09062
1.09111
1.09159
1.09207
1.09256
1.09243
1.09121
1.09
1.08882
1.08764
1.08649
1.08459
1.07752
1.07043
1.06335
1.05627
1.04919
1.04211
1.0358
1.0296
1.02341
1.01723
1.01108
1.00493
1.00471
1.00759
1.01051
1.01344
1.0164
1.01938
1.02446
1.03234
1.04023
1.04812
1.05601
1.06391
1.07059
1.07205
1.07353
1.07473
1.0719
1.06909
1.06632
1.05971
1.05293
1.04615
1.03936
1.03258
1.0258
1.02094
1.01684
1.01275
1.01085
1.01041
1.00997
1.01157
1.01534
1.01913
1.0243
1.03178
1.03928
1.04674
1.05411
1.06149
1.06834
1.07168
1.07505
1.07834
1.07581
1.0733
1.07082
1.06478
1.05834
1.05188
1.04604
1.04036
1.03467
1.03014
1.0262
1.02226
1.02012
1.01947
1.01883
1.01999
1.02353
1.02709
1.03129
1.0369
1.04313
1.04972
1.05701
1.06367
1.06982
1.07417
1.07714
1.07884
1.07807
1.07642
1.0736
1.06835
1.06265
1.05694
1.05051
1.04381
1.03711
1.03219
1.02841
1.02465
1.0225
1.02203
1.02156
1.02261
1.02615
1.0297
1.03383
1.03956
1.04635
1.05364
1.0611
1.06796
1.07435
1.07871
1.08181
1.08345
1.08254
1.08051
1.07681
1.07146
1.06558
1.05944
1.05325
1.04704
1.04084
1.03578
1.03166
1.02755
1.02505
1.02461
1.02418
1.02461
1.0268
1.03019
1.03443
1.04059
1.04776
1.05551
1.06359
1.07117
1.0783
1.08349
1.08712
1.08902
1.08829
1.0864
1.08255
1.07726
1.07123
1.06412
1.05719
1.05041
1.04457
1.0397
1.0358
1.0319
1.02934
1.02892
1.02851
1.02876
1.03076
1.0339
1.03783
1.04366
1.05034
1.05765
1.06536
1.07274
1.07957
1.08525
1.08932
1.09164
1.09207
1.09028
1.08687
1.08176
1.07597
1.06912
1.0621
1.05496
1.0489
1.0438
1.03988
1.03597
1.03327
1.03302
1.0328
1.0331
1.0353
1.03851
1.04242
1.04791
1.05404
1.06074
1.06758
1.07442
1.08075
1.08604
1.08984
1.09206
1.09261
1.09125
1.08835
1.08412
1.07878
1.07275
1.06649
1.06009
1.05416
1.04881
1.04436
1.0411
1.03884
1.03856
1.0383
1.03848
1.04091
1.04424
1.04822
1.05352
1.05925
1.06546
1.07161
1.07755
1.08296
1.08744
1.09059
1.0924
1.09276
1.09149
1.08876
1.08486
1.08004
1.07454
1.06875
1.06313
1.05799
1.05325
1.04921
1.04639
1.04447
1.04447
1.04448
1.04484
1.04817
1.05152
1.05488
1.0597
1.06493
1.07068
1.07623
1.08147
1.08584
1.08947
1.09181
1.09289
1.0927
1.09121
1.08846
1.0848
1.08041
1.07549
1.07036
1.06531
1.06059
1.05669
1.05334
1.05106
1.04948
1.04931
1.04997
1.05127
1.05464
1.05802
1.06141
1.06591
1.07063
1.07557
1.08036
1.08483
1.08848
1.0913
1.09317
1.09372
1.0931
1.09132
1.08839
1.0847
1.08046
1.07585
1.07112
1.06651
1.06226
1.05867
1.05583
1.05404
1.05276
1.05282
1.05376
1.05539
1.05831
1.06173
1.06576
1.0702
1.07473
1.07932
1.08367
1.08774
1.09101
1.09328
1.09484
1.09487
1.0941
1.09259
1.08982
1.08658
1.08276
1.07856
1.07423
1.07013
1.06644
1.0634
1.06107
1.05952
1.05887
1.05915
1.06042
1.06218
1.065
1.06823
1.07198
1.07611
1.0803
1.08448
1.08827
1.09175
1.09436
1.09622
1.09749
1.09737
1.09661
1.09512
1.09263
1.08979
1.08653
1.08316
1.0798
1.07667
1.07398
1.07161
1.07005
1.06891
1.06811
1.00009
1.00165
1.00321
1.00477
1.00634
1.0079
1.00946
1.01186
1.01452
1.01718
1.01985
1.0225
1.02517
1.02906
1.03403
1.03899
1.04396
1.04893
1.05391
1.05939
1.0661
1.07281
1.07952
1.08625
1.09297
1.09933
1.10027
1.10124
1.10222
1.10322
1.10424
1.10529
1.10314
1.10033
1.09752
1.09472
1.09192
1.08912
1.08879
1.09016
1.09153
1.09287
1.09418
1.09548
1.09635
1.09646
1.09659
1.09628
1.09454
1.09284
1.09043
1.08296
1.07549
1.06802
1.05998
1.05194
1.0439
1.0365
1.02918
1.02188
1.01511
1.00852
1.00196
1.00078
1.00246
1.0042
1.00748
1.01207
1.01671
1.02368
1.0338
1.04392
1.05391
1.06363
1.07337
1.08168
1.08382
1.08602
1.08778
1.08308
1.07842
1.07381
1.06554
1.05709
1.04864
1.04034
1.03208
1.02381
1.01746
1.01188
1.00633
1.0037
1.00303
1.00239
1.00418
1.00853
1.01422
1.02115
1.02999
1.03965
1.04948
1.05924
1.06847
1.07702
1.0827
1.08702
1.09026
1.08836
1.0854
1.08118
1.0739
1.06597
1.05743
1.04923
1.0411
1.03299
1.02651
1.02088
1.01526
1.01193
1.01052
1.01047
1.01195
1.01544
1.02085
1.02732
1.03549
1.04445
1.05363
1.06259
1.07116
1.07854
1.08428
1.08828
1.09027
1.09008
1.08754
1.08365
1.07711
1.06978
1.06172
1.05317
1.04449
1.03591
1.02919
1.02367
1.01817
1.01468
1.01327
1.01335
1.01485
1.01858
1.02424
1.03099
1.03958
1.04863
1.05852
1.06835
1.07746
1.08526
1.09097
1.09456
1.0959
1.09482
1.09164
1.08677
1.08039
1.07302
1.06495
1.05668
1.04839
1.04059
1.03374
1.02767
1.02267
1.01902
1.01708
1.01659
1.01732
1.02018
1.02528
1.03149
1.03976
1.04933
1.05979
1.07044
1.08047
1.08915
1.09572
1.10015
1.1022
1.10165
1.09847
1.09327
1.08652
1.07851
1.06977
1.06089
1.05208
1.04422
1.03749
1.03188
1.02757
1.02443
1.02302
1.02264
1.0232
1.02572
1.03009
1.03553
1.04305
1.05185
1.06164
1.07163
1.08122
1.08991
1.09691
1.10177
1.10436
1.10451
1.10196
1.09735
1.09106
1.08338
1.07483
1.0659
1.05711
1.04926
1.04231
1.03651
1.03222
1.02914
1.02815
1.02818
1.02903
1.03178
1.03597
1.0411
1.04793
1.05597
1.06481
1.07394
1.08282
1.0909
1.0975
1.10204
1.10449
1.10477
1.10265
1.09863
1.09304
1.08621
1.07856
1.07052
1.06247
1.05485
1.04822
1.04242
1.03828
1.03524
1.03424
1.03434
1.03529
1.03838
1.0427
1.04792
1.05444
1.06184
1.06984
1.07794
1.08571
1.09269
1.0984
1.10224
1.10424
1.10432
1.10235
1.09857
1.09342
1.08717
1.08014
1.07286
1.06571
1.05905
1.05317
1.048
1.04436
1.04164
1.04082
1.04102
1.04205
1.04561
1.04993
1.05492
1.06144
1.06814
1.07535
1.08256
1.08911
1.09484
1.09948
1.10243
1.10374
1.10336
1.10125
1.09756
1.09274
1.08706
1.08073
1.07418
1.06778
1.06184
1.05669
1.05241
1.04915
1.04724
1.04659
1.04747
1.0491
1.05283
1.0571
1.06192
1.06796
1.07425
1.08077
1.08672
1.09242
1.09719
1.10072
1.10271
1.10325
1.10239
1.10011
1.09636
1.09165
1.08631
1.08054
1.07459
1.0688
1.06346
1.05895
1.05533
1.05269
1.05122
1.05101
1.05196
1.05403
1.05731
1.06147
1.06638
1.0721
1.078
1.08404
1.08965
1.09484
1.09873
1.10181
1.10356
1.1038
1.10275
1.10047
1.09695
1.0926
1.08772
1.08253
1.07724
1.07218
1.06763
1.06384
1.06092
1.05893
1.05798
1.05819
1.05941
1.06159
1.06476
1.06872
1.07325
1.0782
1.08337
1.08847
1.09327
1.09748
1.10085
1.10329
1.10464
1.10472
1.1037
1.10166
1.09866
1.09494
1.09082
1.08652
1.08231
1.07835
1.07485
1.07207
1.07015
1.0688
1.06793
1.00011
1.00154
1.00298
1.00441
1.00585
1.00728
1.00872
1.01108
1.01372
1.01636
1.019
1.02165
1.02429
1.02831
1.03352
1.03873
1.04396
1.04919
1.05443
1.06038
1.06807
1.07575
1.08345
1.09115
1.09886
1.10613
1.10687
1.10765
1.10846
1.1093
1.11017
1.11107
1.10783
1.10374
1.09964
1.09554
1.09144
1.08735
1.0871
1.08948
1.09185
1.09416
1.0964
1.09864
1.10064
1.10225
1.10389
1.10454
1.10216
1.09981
1.0968
1.08892
1.08107
1.07321
1.0641
1.055
1.0459
1.0373
1.02877
1.02026
1.01285
1.0058
0.998792
0.996513
0.996785
0.997167
1.00082
1.00728
1.0138
1.02292
1.03552
1.04811
1.06042
1.07209
1.08379
1.09384
1.09662
1.09951
1.10181
1.09515
1.08857
1.08206
1.07198
1.06172
1.05147
1.04151
1.03161
1.02171
1.01373
1.00655
0.999398
0.99597
0.995048
0.994194
0.996117
1.00099
1.00859
1.01738
1.02782
1.03951
1.05169
1.06377
1.07505
1.0853
1.09338
1.09905
1.10207
1.10096
1.09781
1.09217
1.08363
1.07415
1.06349
1.05275
1.04199
1.03123
1.02263
1.01515
1.00769
1.003
1.00062
1.00113
1.00317
1.00719
1.01421
1.02342
1.03449
1.04652
1.05866
1.07018
1.08071
1.08953
1.09607
1.10043
1.1025
1.10201
1.09895
1.09392
1.08617
1.07687
1.06639
1.05566
1.04492
1.03458
1.026
1.01858
1.01119
1.00617
1.00363
1.0041
1.00616
1.01051
1.01805
1.02798
1.0398
1.05241
1.06557
1.07838
1.09005
1.09983
1.10672
1.11076
1.11183
1.10976
1.10505
1.09838
1.09026
1.08091
1.07076
1.06019
1.04954
1.03978
1.03093
1.02279
1.01673
1.01184
1.00845
1.00794
1.00891
1.01277
1.01959
1.02858
1.03978
1.05245
1.06605
1.07962
1.09224
1.10312
1.11122
1.11646
1.11863
1.11749
1.11305
1.10609
1.0972
1.08687
1.07587
1.06475
1.05379
1.04363
1.03484
1.02727
1.02215
1.01817
1.01574
1.0154
1.01629
1.01964
1.02541
1.03318
1.04332
1.05519
1.0681
1.08107
1.09321
1.10386
1.11211
1.11754
1.12008
1.11964
1.11593
1.1098
1.10166
1.09188
1.08114
1.07009
1.05929
1.04939
1.04045
1.03269
1.02764
1.02389
1.02207
1.02226
1.02361
1.02715
1.03257
1.03969
1.04895
1.05984
1.07168
1.08366
1.09497
1.10495
1.11277
1.1178
1.12011
1.11971
1.11639
1.1108
1.1034
1.0946
1.08486
1.0748
1.06483
1.05549
1.04727
1.04011
1.03474
1.03095
1.02918
1.0295
1.0311
1.03506
1.04046
1.04743
1.05602
1.0659
1.07657
1.08731
1.09735
1.10609
1.11295
1.11724
1.11915
1.11861
1.11551
1.11026
1.10339
1.09527
1.08629
1.07712
1.06815
1.05982
1.05249
1.04628
1.04156
1.03815
1.03648
1.03693
1.03861
1.0427
1.04805
1.05492
1.06332
1.07224
1.08167
1.09105
1.09961
1.10693
1.11264
1.11608
1.11731
1.11637
1.11325
1.10819
1.10183
1.0945
1.08644
1.07815
1.07009
1.06265
1.05619
1.05085
1.0468
1.04431
1.04341
1.04429
1.04641
1.05057
1.05593
1.06242
1.07019
1.07837
1.0867
1.09463
1.10185
1.10789
1.11231
1.11472
1.11518
1.11381
1.11066
1.10571
1.09961
1.09284
1.08556
1.07806
1.07082
1.06417
1.05857
1.05402
1.0507
1.04884
1.04849
1.04954
1.05193
1.05584
1.06094
1.06703
1.07415
1.08168
1.08937
1.09653
1.10291
1.10795
1.11173
1.11384
1.11405
1.11258
1.10953
1.10495
1.09938
1.09318
1.08664
1.08007
1.07384
1.06826
1.06359
1.05994
1.05741
1.05615
1.05631
1.05771
1.06032
1.06414
1.06895
1.07449
1.08058
1.08697
1.09329
1.09926
1.10446
1.10863
1.11158
1.11315
1.11309
1.11165
1.10895
1.10509
1.10037
1.09516
1.08975
1.08446
1.07951
1.07512
1.07168
1.06937
1.0678
1.06683
1.00013
1.00144
1.00275
1.00406
1.00536
1.00667
1.00798
1.01029
1.01291
1.01554
1.01817
1.0208
1.02343
1.02757
1.03304
1.03851
1.044
1.04948
1.05499
1.06143
1.07008
1.07874
1.0874
1.09608
1.10476
1.11295
1.11348
1.11407
1.1147
1.11538
1.1161
1.11686
1.11253
1.10714
1.10175
1.09636
1.09097
1.08558
1.0854
1.08879
1.09218
1.09546
1.09862
1.10179
1.10492
1.10804
1.11117
1.11281
1.10977
1.10679
1.10319
1.09494
1.0867
1.07848
1.0683
1.05813
1.04797
1.03817
1.02844
1.01872
1.01065
1.00312
0.99565
0.992255
0.991113
0.990149
0.994212
1.00254
1.01099
1.02228
1.03738
1.05247
1.06709
1.08066
1.09429
1.10603
1.10944
1.11301
1.11586
1.10724
1.09875
1.09038
1.07849
1.06645
1.05442
1.04278
1.03122
1.01967
1.01006
1.00125
0.992493
0.988253
0.987069
0.985994
0.988026
0.993366
1.00255
1.01317
1.02561
1.03898
1.05307
1.06697
1.08011
1.09176
1.1014
1.10864
1.11259
1.11228
1.10934
1.10324
1.09337
1.08229
1.06961
1.05636
1.04296
1.02955
1.01882
1.00946
1.00015
0.993991
0.990476
0.991262
0.994271
1.00015
1.0092
1.02151
1.03584
1.05131
1.06673
1.08121
1.09406
1.10435
1.11145
1.11563
1.11692
1.11493
1.11031
1.10345
1.09437
1.08319
1.07058
1.0577
1.04494
1.0332
1.02289
1.01353
1.00424
0.997609
0.993763
0.994138
0.996831
1.00285
1.01225
1.02563
1.04114
1.05783
1.07475
1.09085
1.10528
1.11715
1.12529
1.12978
1.13049
1.12718
1.12052
1.11149
1.10079
1.08883
1.07614
1.06309
1.05038
1.03817
1.0271
1.01696