<VTKFile type="PolyData" version="1.0" byte_order="LittleEndian" header_type="UInt64">
  <PolyData>
    <Piece NumberOfPoints="286" NumberOfVerts="0" NumberOfLines="143" NumberOfStrips="0" NumberOfPolys="0">
      <PointData TCoords="Texture Coordinates">
        <DataArray type="Float64" Name="magnitude" format="ascii" RangeMin="0.0338932015" RangeMax="1.4017450213">
          1.4017450213 1.4017450213 1.3492200375 1.3492200375 1.3836899996 1.3836899996
          1.3591300249 1.3591300249 1.3506349921 1.3506349921 1.3180249929 1.3180249929
          1.3163999915 1.3163999915 1.1709150076 1.1709150076 1.1429649591 1.1429649591
          1.1364349723 1.1364349723 1.1362250447 1.1362250447 1.1302399635 1.1302399635
          1.1240900159 1.1240900159 1.12035501 1.12035501 1.1161599755 1.1161599755
          1.1142950058 1.1142950058 1.1123200059 1.1123200059 1.1121349931 1.1121349931
          1.1104300022 1.1104300022 1.1098099947 1.1098099947 1.1084849834 1.1084849834
          1.1090550423 1.1090550423 1.1075749993 1.1075749993 1.1077400446 1.1077400446
          1.1057350039 1.1057350039 1.1057850122 1.1057850122 1.1032999754 1.1032999754
          1.1032049656 1.1032049656 1.1004950404 1.1004950404 1.101099968 1.101099968
          1.0981050134 1.0981050134 1.0975549817 1.0975549817 1.0652700067 1.0652700067
          1.0001900196 1.0001900196 1.000180006 1.000180006 0.63910749555 0.63910749555
          0.19466649741 0.19466649741 0.0338932015 0.0338932015 0.065646402538 0.065646402538
          0.12994850054 0.12994850054 0.3365874961 0.3365874961 0.75196200609 0.75196200609
          0.82207551599 0.82207551599 0.85351097584 0.85351097584 0.81972950697 0.81972950697
          0.83843749762 0.83843749762 0.82834550738 0.82834550738 0.83562448621 0.83562448621
          0.83842751384 0.83842751384 0.77911952138 0.77911952138 0.83874499798 0.83874499798
          0.83447501063 0.83447501063 0.78296050429 0.78296050429 0.78557050228 0.78557050228
          0.83131849766 0.83131849766 0.79240497947 0.79240497947 0.82664451003 0.82664451003
          0.79148599505 0.79148599505 0.80173352361 0.80173352361 0.79584500194 0.79584500194
          0.80114451051 0.80114451051 0.79779651761 0.79779651761 0.80581602454 0.80581602454
          0.80908501148 0.80908501148 0.82297301292 0.82297301292 0.81800299883 0.81800299883
          0.81430050731 0.81430050731 1.0001149774 1.0001149774 1.0001350045 1.0001350045
          1.012264967 1.012264967 1.0122699738 1.0122699738 1.0186199546 1.0186199546
          1.0247849822 1.0247849822 1.0283100009 1.0283100009 1.030494988 1.030494988
          1.0322000384 1.0322000384 1.08564502 1.08564502 1.2368200421 1.2368200421
          1.2180350423 1.2180350423 1.3039000034 1.3039000034 1.0623499751 1.0623499751
          1.0630900264 1.0630900264 0.10524420068 0.10524420068 0.79136651754 0.79136651754
          1.0122749805 1.0122749805 1.0887200236 1.0887200236 1.1678799987 1.1678799987
          1.057954967 1.057954967 1.0590850115 1.0590850115 0.16837699711 0.16837699711
          0.79753550887 0.79753550887 1.058924973 1.058924973 1.0336799622 1.0336799622
          1.0536350012 1.0536350012 1.0550349951 1.0550349951 0.32600449771 0.32600449771
          0.80302599072 0.80302599072 1.0492300391 1.0492300391 1.0508700013 1.0508700013
          0.5461434871 0.5461434871 0.80694648623 0.80694648623 1.0448099971 1.0448099971
          1.0465549827 1.0465549827 0.77393648028 0.77393648028 0.81158751249 0.81158751249
          1.0401799679 1.0401799679 1.0420999527 1.0420999527 0.95685148239 0.95685148239
          0.81683301926 0.81683301926 1.0368149877 1.0368149877 1.0378800035 1.0378800035
          1.0001699924 1.0001699924 0.82124102116 0.82124102116 1.0348550081 1.0348550081
          1.0350400209 1.0350400209 1.0001850128 1.0001850128 0.82569852471 0.82569852471
          1.0325149894 1.0325149894 1.033280015 1.033280015 1.0159199834 1.0159199834
          0.83218902349 0.83218902349 1.0230249763 1.0230249763 1.0281049609 1.0281049609
          1.0306200385 1.0306200385 0.8399105072 0.8399105072 1.0187699795 1.0187699795
          1.023999989 1.023999989 0.8486405015 0.8486405015 1.0167049766 1.0167049766
          0.85770002007 0.85770002007 1.0133399963 1.0133399963 0.86753752828 0.86753752828
          1.0121899843 1.0121899843 0.87790101767 0.87790101767 0.99522048235 0.99522048235
          0.88847351074 0.88847351074 0.96693250537 0.96693250537 0.90002802014 0.90002802014
          0.94849801064 0.94849801064 0.91164851189 0.91164851189 0.93869400024 0.93869400024
          0.92141899467 0.92141899467 0.93102499843 0.93102499843
        </DataArray>
        <DataArray type="Float32" Name="Texture Coordinates" NumberOfComponents="2" format="ascii" RangeMin="0" RangeMax="1">
          0 0 1 0 0 0
          1 0 0 0 1 0
          0 0 1 0 0 0
          1 0 0 0 1 0
          0 0 1 0 0 0
          1 0 0 0 1 0
          0 0 1 0 0 0
          1 0 0 0 1 0
          0 0 1 0 0 0
          1 0 0 0 1 0
          0 0 1 0 0 0
          1 0 0 0 1 0
          0 0 1 0 0 0
          1 0 0 0 1 0
          0 0 1 0 0 0
          1 0 0 0 1 0
          0 0 1 0 0 0
          1 0 0 0 1 0
          0 0 1 0 0 0
          1 0 0 0 1 0
          0 0 1 0 0 0
          1 0 0 0 1 0
          0 0 1 0 0 0
          1 0 0 0 1 0
          0 0 1 0 0 0
          1 0 0 0 1 0
          0 0 1 0 0 0
          1 0 0 0 1 0
          0 0 1 0 0 0
          1 0 0 0 1 0
          0 0 1 0 0 0
          1 0 0 0 1 0
          0 0 1 0 0 0
          1 0 0 0 1 0
          0 0 1 0 0 0
          1 0 0 0 1 0
          0 0 1 0 0 0
          1 0 0 0 1 0
          0 0 1 0 0 0
          1 0 0 0 1 0
          0 0 1 0 0 0
          1 0 0 0 1 0
          0 0 1 0 0 0
          1 0 0 0 1 0
          0 0 1 0 0 0
          1 0 0 0 1 0
          0 0 1 0 0 0
          1 0 0 0 1 0
          0 0 1 0 0 0
          1 0 0 0 1 0
          0 0 1 0 0 0
          1 0 0 0 1 0
          0 0 1 0 0 0
          1 0 0 0 1 0
          0 0 1 0 0 0
          1 0 0 0 1 0
          0 0 1 0 0 0
          1 0 0 0 1 0
          0 0 1 0 0 0
          1 0 0 0 1 0
          0 0 1 0 0 0
          1 0 0 0 1 0
          0 0 1 0 0 0
          1 0 0 0 1 0
          0 0 1 0 0 0
          1 0 0 0 1 0
          0 0 1 0 0 0
          1 0 0 0 1 0
          0 0 1 0 0 0
          1 0 0 0 1 0
          0 0 1 0 0 0
          1 0 0 0 1 0
          0 0 1 0 0 0
          1 0 0 0 1 0
          0 0 1 0 0 0
          1 0 0 0 1 0
          0 0 1 0 0 0
          1 0 0 0 1 0
          0 0 1 0 0 0
          1 0 0 0 1 0
          0 0 1 0 0 0
          1 0 0 0 1 0
          0 0 1 0 0 0
          1 0 0 0 1 0
          0 0 1 0 0 0
          1 0 0 0 1 0
          0 0 1 0 0 0
          1 0 0 0 1 0
          0 0 1 0 0 0
          1 0 0 0 1 0
          0 0 1 0 0 0
          1 0 0 0 1 0
          0 0 1 0 0 0
          1 0 0 0 1 0
          0 0 1 0 0 0
          1 0
        </DataArray>
      </PointData>
      <CellData>
        <DataArray type="Int32" Name="SegmentationId" format="ascii" RangeMin="0" RangeMax="142">
          0 1 2 3 4 5
          6 7 8 9 10 11
          12 13 14 15 16 17
          18 19 20 21 22 23
          24 25 26 27 28 29
          30 31 32 33 34 35
          36 37 38 39 40 41
          42 43 44 45 46 47
          48 49 50 51 52 53
          54 55 56 57 58 59
          60 61 62 63 64 65
          66 67 68 69 70 71
          72 73 74 75 76 77
          78 79 80 81 82 83
          84 85 86 87 88 89
          90 91 92 93 94 95
          96 97 98 99 100 101
          102 103 104 105 106 107
          108 109 110 111 112 113
          114 115 116 117 118 119
          120 121 122 123 124 125
          126 127 128 129 130 131
          132 133 134 135 136 137
          138 139 140 141 142
        </DataArray>
        <DataArray type="Int32" Name="Type" format="ascii" RangeMin="-1" RangeMax="-1">
          -1 -1 -1 -1 -1 -1
          -1 -1 -1 -1 -1 -1
          -1 -1 -1 -1 -1 -1
          -1 -1 -1 -1 -1 -1
          -1 -1 -1 -1 -1 -1
          -1 -1 -1 -1 -1 -1
          -1 -1 -1 -1 -1 -1
          -1 -1 -1 -1 -1 -1
          -1 -1 -1 -1 -1 -1
          -1 -1 -1 -1 -1 -1
          -1 -1 -1 -1 -1 -1
          -1 -1 -1 -1 -1 -1
          -1 -1 -1 -1 -1 -1
          -1 -1 -1 -1 -1 -1
          -1 -1 -1 -1 -1 -1
          -1 -1 -1 -1 -1 -1
          -1 -1 -1 -1 -1 -1
          -1 -1 -1 -1 -1 -1
          -1 -1 -1 -1 -1 -1
          -1 -1 -1 -1 -1 -1
          -1 -1 -1 -1 -1 -1
          -1 -1 -1 -1 -1 -1
          -1 -1 -1 -1 -1 -1
          -1 -1 -1 -1 -1
        </DataArray>
        <DataArray type="Int32" Name="RegionSize" format="ascii" RangeMin="0" RangeMax="1132">
          1 22 0 1 0 3
          1 365 381 422 376 365
          361 357 358 359 358 355
          340 338 335 338 329 329
          325 318 316 312 306 299
          312 181 0 0 0 1
          0 20 1 2 13 92
          139 239 126 163 128 121
          115 27 105 97 23 24
          89 38 83 38 53 42
          53 44 55 57 77 71
          65 11 14 0 0 6
          9 7 3 2 6 244
          180 0 69 40 9 18
          0 99 606 72 64 5
          48 328 45 90 81 22
          14 79 67 33 43 95
          91 103 31 89 93 420
          74 59 98 0 21 42
          36 1 78 97 67 507
          80 89 168 87 130 303
          254 99 113 143 63 136
          9 168 1132 152 569 213
          314 164 120 193 177
        </DataArray>
        <DataArray type="Float64" Name="RegionSpan" format="ascii" RangeMin="1" RangeMax="57.870545185">
          1.4142135624 7 1 1 1 2
          1 22.022715546 20.518284529 21.931712199 20.615528128 19.849433241
          18.439088915 20.518284529 19.798989873 19.104973175 19.104973175 19.849433241
          19.104973175 19.849433241 18.439088915 19.209372712 18.439088915 19.209372712
          18.439088915 19.209372712 18.439088915 19.209372712 17.804493815 17.691806013
          16.155494421 18.601075238 1 1 1 1.4142135624
          1 6.7082039325 1 1 4.2426406871 6.4031242374
          7.2801098893 7.2801098893 7.6157731059 7.2801098893 7.2801098893 6.3245553203
          7.2801098893 8 7.0710678119 8.0622577483 6.0827625303 6.0827625303
          7.0710678119 6.0827625303 8.0622577483 7.0710678119 7.0710678119 6.0827625303
          7.0710678119 7.0710678119 7.0710678119 7.2801098893 7.2801098893 7.2801098893
          7.2801098893 6 15 1 1 3
          4.2426406871 3 3 3 5 17.691806013
          16.970562748 5 26 28.442925307 2.2360679775 13.03840481
          2 7.8102496759 27.586228448 28 28 1.4142135624
          14.035668848 28.653097564 25 28 28 7.6157731059
          14.035668848 28 28 3 14.035668848 28
          28 10.049875621 13.03840481 28 28 48.383881614
          14.035668848 28 28 20 14.035668848 28
          28 2 14.035668848 28.160255681 28.160255681 57.870545185
          14.035668848 25.709920264 28 26 14.035668848 28
          28 14.035668848 30.149626863 14.035668848 48.383881614 13
          23.409399821 15.033296378 14.035668848 13.03840481 15.033296378 15.033296378
          14 13.03840481 14 15.033296378 13.03840481
        </DataArray>
      </CellData>
      <Points>
        <DataArray type="Float32" Name="Points" NumberOfComponents="3" format="ascii" RangeMin="0" RangeMax="400.80543908">
          26 19 0 25 20 0
          30 30 0 37 30 0
          26 19 0 27 19 0
          50 18 0 49 18 0
          50 18 0 50 19 0
          25 30 0 27 30 0
          25 30 0 25 29 0
          50 49 0 64 32 0
          106 46 0 91 32 0
          93 3 0 77 18 0
          121 3 0 105 16 0
          134 46 0 119 33 0
          147 3 0 133 15 0
          162 49 0 147 35 0
          175 0 0 161 14 0
          190 49 0 176 36 0
          203 0 0 189 13 0
          218 49 0 203 36 0
          231 0 0 217 13 0
          246 49 0 231 36 0
          259 0 0 245 12 0
          274 49 0 259 37 0
          287 0 0 273 12 0
          302 49 0 287 37 0
          315 0 0 301 12 0
          330 49 0 315 37 0
          343 0 0 329 12 0
          358 49 0 343 37 0
          371 0 0 357 11 0
          384 49 0 371 37 0
          399 5 0 384 11 0
          384 49 0 399 38 0
          399 5 0 399 6 0
          0 15 0 0 16 0
          0 17 0 0 18 0
          36 23 0 35 24 0
          29 23 0 29 24 0
          23 23 0 29 26 0
          29 27 0 29 26 0
          31 24 0 30 24 0
          39 23 0 36 26 0
          50 27 0 46 22 0
          92 22 0 99 24 0
          63 22 0 70 24 0
          106 27 0 113 24 0
          77 27 0 84 25 0
          120 22 0 127 24 0
          134 27 0 140 25 0
          148 22 0 155 24 0
          398 24 0 390 24 0
          161 26 0 168 25 0
          175 23 0 183 24 0
          384 25 0 390 24 0
          371 24 0 377 25 0
          189 26 0 196 25 0
          343 24 0 349 25 0
          203 23 0 211 24 0
          356 25 0 363 24 0
          287 24 0 294 25 0
          329 25 0 335 24 0
          301 25 0 308 24 0
          315 24 0 322 25 0
          273 25 0 280 24 0
          259 23 0 266 25 0
          217 26 0 224 24 0
          231 23 0 238 25 0
          245 26 0 252 24 0
          0 43 0 0 37 0
          0 0 0 0 15 0
          78 49 0 78 48 0
          78 47 0 78 48 0
          93 0 0 93 3 0
          109 49 0 106 46 0
          121 0 0 121 3 0
          134 49 0 134 46 0
          147 0 0 147 3 0
          38 0 0 43 0 0
          38 6 0 26 19 0
          38 6 0 50 18 0
          30 30 0 25 30 0
          358 49 0 384 49 0
          371 0 0 399 5 0
          29 26 0 30 24 0
          390 24 0 377 25 0
          78 48 0 78 46 0
          43 0 0 38 6 0
          50 49 0 30 30 0
          330 49 0 358 49 0
          343 0 0 371 0 0
          30 24 0 29 23 0
          377 25 0 363 24 0
          57 25 0 43 0 0
          57 25 0 50 49 0
          302 49 0 330 49 0
          315 0 0 343 0 0
          29 23 0 36 26 0
          363 24 0 349 25 0
          274 49 0 302 49 0
          287 0 0 315 0 0
          36 26 0 36 23 0
          349 25 0 335 24 0
          246 49 0 274 49 0
          259 0 0 287 0 0
          36 23 0 46 22 0
          335 24 0 322 25 0
          218 49 0 246 49 0
          231 0 0 259 0 0
          46 22 0 0 37 0
          322 25 0 308 24 0
          190 49 0 218 49 0
          203 0 0 231 0 0
          0 37 0 0 17 0
          308 24 0 294 25 0
          162 49 0 190 49 0
          175 0 0 203 0 0
          0 17 0 0 15 0
          294 25 0 280 24 0
          134 46 0 162 49 0
          147 3 0 175 0 0
          0 15 0 57 25 0
          280 24 0 266 25 0
          63 0 0 57 25 0
          106 46 0 134 46 0
          121 3 0 147 3 0
          266 25 0 252 24 0
          78 46 0 106 46 0
          93 3 0 121 3 0
          252 24 0 238 25 0
          63 0 0 93 3 0
          238 25 0 224 24 0
          78 46 0 63 0 0
          224 24 0 211 24 0
          70 24 0 78 46 0
          211 24 0 196 25 0
          84 25 0 70 24 0
          196 25 0 183 24 0
          99 24 0 84 25 0
          183 24 0 168 25 0
          113 24 0 99 24 0
          168 25 0 155 24 0
          127 24 0 113 24 0
          155 24 0 140 25 0
          140 25 0 127 24 0
        </DataArray>
      </Points>
      <Verts>
        <DataArray type="Int64" Name="connectivity" format="ascii" RangeMin="1e+299" RangeMax="-1e+299">
        </DataArray>
        <DataArray type="Int64" Name="offsets" format="ascii" RangeMin="1e+299" RangeMax="-1e+299">
        </DataArray>
      </Verts>
      <Lines>
        <DataArray type="Int64" Name="connectivity" format="ascii" RangeMin="0" RangeMax="285">
          0 1 2 3 4 5
          6 7 8 9 10 11
          12 13 14 15 16 17
          18 19 20 21 22 23
          24 25 26 27 28 29
          30 31 32 33 34 35
          36 37 38 39 40 41
          42 43 44 45 46 47
          48 49 50 51 52 53
          54 55 56 57 58 59
          60 61 62 63 64 65
          66 67 68 69 70 71
          72 73 74 75 76 77
          78 79 80 81 82 83
          84 85 86 87 88 89
          90 91 92 93 94 95
          96 97 98 99 100 101
          102 103 104 105 106 107
          108 109 110 111 112 113
          114 115 116 117 118 119
          120 121 122 123 124 125
          126 127 128 129 130 131
          132 133 134 135 136 137
          138 139 140 141 142 143
          144 145 146 147 148 149
          150 151 152 153 154 155
          156 157 158 159 160 161
          162 163 164 165 166 167
          168 169 170 171 172 173
          174 175 176 177 178 179
          180 181 182 183 184 185
          186 187 188 189 190 191
          192 193 194 195 196 197
          198 199 200 201 202 203
          204 205 206 207 208 209
          210 211 212 213 214 215
          216 217 218 219 220 221
          222 223 224 225 226 227
          228 229 230 231 232 233
          234 235 236 237 238 239
          240 241 242 243 244 245
          246 247 248 249 250 251
          252 253 254 255 256 257
          258 259 260 261 262 263
          264 265 266 267 268 269
          270 271 272 273 274 275
          276 277 278 279 280 281
          282 283 284 285
        </DataArray>
        <DataArray type="Int64" Name="offsets" format="ascii" RangeMin="2" RangeMax="286">
          2 4 6 8 10 12
          14 16 18 20 22 24
          26 28 30 32 34 36
          38 40 42 44 46 48
          50 52 54 56 58 60
          62 64 66 68 70 72
          74 76 78 80 82 84
          86 88 90 92 94 96
          98 100 102 104 106 108
          110 112 114 116 118 120
          122 124 126 128 130 132
          134 136 138 140 142 144
          146 148 150 152 154 156
          158 160 162 164 166 168
          170 172 174 176 178 180
          182 184 186 188 190 192
          194 196 198 200 202 204
          206 208 210 212 214 216
          218 220 222 224 226 228
          230 232 234 236 238 240
          242 244 246 248 250 252
          254 256 258 260 262 264
          266 268 270 272 274 276
          278 280 282 284 286
        </DataArray>
      </Lines>
      <Strips>
        <DataArray type="Int64" Name="connectivity" format="ascii" RangeMin="0" RangeMax="285">
        </DataArray>
        <DataArray type="Int64" Name="offsets" format="ascii" RangeMin="2" RangeMax="286">
        </DataArray>
      </Strips>
      <Polys>
        <DataArray type="Int64" Name="connectivity" format="ascii" RangeMin="0" RangeMax="285">
        </DataArray>
        <DataArray type="Int64" Name="offsets" format="ascii" RangeMin="2" RangeMax="286">
        </DataArray>
      </Polys>
    </Piece>
  </PolyData>
</VTKFile>
