<VTKFile type="PolyData" version="1.0" byte_order="LittleEndian" header_type="UInt64">
  <PolyData>
    <Piece NumberOfPoints="290" NumberOfVerts="0" NumberOfLines="145" NumberOfStrips="0" NumberOfPolys="0">
      <PointData TCoords="Texture Coordinates">
        <DataArray type="Float64" Name="magnitude" format="ascii" RangeMin="0.036507051438" RangeMax="1.401055038">
          1.401055038 1.401055038 1.3465650082 1.3465650082 1.3835300207 1.3835300207
          1.3601599932 1.3601599932 1.3520399928 1.3520399928 1.3158700466 1.3158700466
          1.3147550225 1.3147550225 1.1688249707 1.1688249707 1.1423000097 1.1423000097
          1.1363599896 1.1363599896 1.1355499625 1.1355499625 1.1300449967 1.1300449967
          1.1238899827 1.1238899827 1.1202049851 1.1202049851 1.1161350012 1.1161350012
          1.113804996 1.113804996 1.1117099524 1.1117099524 1.1115900278 1.1115900278
          1.1093599796 1.1093599796 1.1089749932 1.1089749932 1.1076000333 1.1076000333
          1.1075299978 1.1075299978 1.1067649722 1.1067649722 1.1073099971 1.1073099971
          1.1151100397 1.1151100397 1.1048249602 1.1048249602 1.103004992 1.103004992
          1.1030899882 1.1030899882 1.1013550162 1.1013550162 1.10224998 1.10224998
          1.102214992 1.102214992 1.0981349945 1.0981349945 1.0728350282 1.0728350282
          1.0001900196 1.0001900196 0.64188101888 0.64188101888 0.20067100227 0.20067100227
          0.036507051438 0.036507051438 0.067434951663 0.067434951663 0.12913700193 0.12913700193
          0.34806250781 0.34806250781 0.60254698992 0.60254698992 0.60328799486 0.60328799486
          0.82054099441 0.82054099441 0.82013949752 0.82013949752 0.85593798757 0.85593798757
          0.83844149113 0.83844149113 0.82806101441 0.82806101441 0.83519548178 0.83519548178
          0.83806750178 0.83806750178 0.83762949705 0.83762949705 0.83421349525 0.83421349525
          0.78913250566 0.78913250566 0.83112049103 0.83112049103 0.8251055181 0.8251055181
          0.79646599293 0.79646599293 0.79900202155 0.79900202155 0.80103850365 0.80103850365
          0.79685997963 0.79685997963 0.79404452443 0.79404452443 0.80565449595 0.80565449595
          0.81692349911 0.81692349911 0.79131799936 0.79131799936 0.82189399004 0.82189399004
          0.79341748357 0.79341748357 0.78293299675 0.78293299675 0.78296551108 0.78296551108
          0.79097849131 0.79097849131 0.81343850493 0.81343850493 1.0000549555 1.0000549555
          1.0000599623 1.0000599623 1.0001350045 1.0001350045 1.0189549923 1.0189549923
          1.0247300267 1.0247300267 1.0285149813 1.0285149813 1.0303349495 1.0303349495
          1.0320749879 1.0320749879 1.0840849876 1.0840849876 1.2360950112 1.2360950112
          1.2193700075 1.2193700075 1.3009750247 1.3009750247 1.0629799962 1.0629799962
          1.0592399836 1.0592399836 1.0628650188 1.0628650188 0.11132505164 0.11132505164
          0.76325500011 0.76325500011 0.80919250846 0.80919250846 0.79957801104 0.79957801104
          1.0001099706 1.0001099706 1.0873699784 1.0873699784 1.1653800011 1.1653800011
          1.0572699904 1.0572699904 1.0547949672 1.0547949672 0.17450150102 0.17450150102
          0.80229499936 0.80229499936 1.0583949685 1.0583949685 1.033559978 1.033559978
          1.0530499816 1.0530499816 1.0504649878 1.0504649878 0.32867250592 0.32867250592
          0.80509650707 0.80509650707 1.0486750007 1.0486750007 1.0458800197 1.0458800197
          0.54887551069 0.54887551069 0.80886900425 0.80886900425 1.0435600281 1.0435600281
          1.0413200259 1.0413200259 0.77886500955 0.77886500955 0.81215798855 0.81215798855
          1.039345026 1.039345026 1.0372449756 1.0372449756 0.95905849338 0.95905849338
          0.81492900848 0.81492900848 1.0360199809 1.0360199809 1.0347649455 1.0347649455
          1.0001749992 1.0001749992 0.81918850541 0.81918850541 1.0341699719 1.0341699719
          1.0330549479 1.0330549479 1.0001950264 1.0001950264 0.82507950068 0.82507950068
          1.0323249698 1.0323249698 1.03064996 1.03064996 1.0161949992 1.0161949992
          0.83222201467 0.83222201467 1.0231649876 1.0231649876 1.0280799866 1.0280799866
          1.0241850019 1.0241850019 0.83944451809 0.83944451809 1.0188900232 1.0188900232
          1.0166950226 1.0166950226 0.84759199619 0.84759199619 1.0133900046 1.0133900046
          0.85654497147 0.85654497147 1.0125150084 1.0125150084 0.86582449079 0.86582449079
          0.9944165051 0.9944165051 0.87643450499 0.87643450499 0.96555349231 0.96555349231
          0.88840049505 0.88840049505 0.94901549816 0.94901549816 0.8997874856 0.8997874856
          0.93992501497 0.93992501497 0.91130799055 0.91130799055 0.93155500293 0.93155500293
          0.92188999057 0.92188999057
        </DataArray>
        <DataArray type="Float32" Name="Texture Coordinates" NumberOfComponents="2" format="ascii" RangeMin="0" RangeMax="1">
          0 0 1 0 0 0
          1 0 0 0 1 0
          0 0 1 0 0 0
          1 0 0 0 1 0
          0 0 1 0 0 0
          1 0 0 0 1 0
          0 0 1 0 0 0
          1 0 0 0 1 0
          0 0 1 0 0 0
          1 0 0 0 1 0
          0 0 1 0 0 0
          1 0 0 0 1 0
          0 0 1 0 0 0
          1 0 0 0 1 0
          0 0 1 0 0 0
          1 0 0 0 1 0
          0 0 1 0 0 0
          1 0 0 0 1 0
          0 0 1 0 0 0
          1 0 0 0 1 0
          0 0 1 0 0 0
          1 0 0 0 1 0
          0 0 1 0 0 0
          1 0 0 0 1 0
          0 0 1 0 0 0
          1 0 0 0 1 0
          0 0 1 0 0 0
          1 0 0 0 1 0
          0 0 1 0 0 0
          1 0 0 0 1 0
          0 0 1 0 0 0
          1 0 0 0 1 0
          0 0 1 0 0 0
          1 0 0 0 1 0
          0 0 1 0 0 0
          1 0 0 0 1 0
          0 0 1 0 0 0
          1 0 0 0 1 0
          0 0 1 0 0 0
          1 0 0 0 1 0
          0 0 1 0 0 0
          1 0 0 0 1 0
          0 0 1 0 0 0
          1 0 0 0 1 0
          0 0 1 0 0 0
          1 0 0 0 1 0
          0 0 1 0 0 0
          1 0 0 0 1 0
          0 0 1 0 0 0
          1 0 0 0 1 0
          0 0 1 0 0 0
          1 0 0 0 1 0
          0 0 1 0 0 0
          1 0 0 0 1 0
          0 0 1 0 0 0
          1 0 0 0 1 0
          0 0 1 0 0 0
          1 0 0 0 1 0
          0 0 1 0 0 0
          1 0 0 0 1 0
          0 0 1 0 0 0
          1 0 0 0 1 0
          0 0 1 0 0 0
          1 0 0 0 1 0
          0 0 1 0 0 0
          1 0 0 0 1 0
          0 0 1 0 0 0
          1 0 0 0 1 0
          0 0 1 0 0 0
          1 0 0 0 1 0
          0 0 1 0 0 0
          1 0 0 0 1 0
          0 0 1 0 0 0
          1 0 0 0 1 0
          0 0 1 0 0 0
          1 0 0 0 1 0
          0 0 1 0 0 0
          1 0 0 0 1 0
          0 0 1 0 0 0
          1 0 0 0 1 0
          0 0 1 0 0 0
          1 0 0 0 1 0
          0 0 1 0 0 0
          1 0 0 0 1 0
          0 0 1 0 0 0
          1 0 0 0 1 0
          0 0 1 0 0 0
          1 0 0 0 1 0
          0 0 1 0 0 0
          1 0 0 0 1 0
          0 0 1 0 0 0
          1 0 0 0 1 0
          0 0 1 0 0 0
          1 0 0 0 1 0
          0 0 1 0 0 0
          1 0 0 0 1 0
          0 0 1 0
        </DataArray>
      </PointData>
      <CellData>
        <DataArray type="Int32" Name="SegmentationId" format="ascii" RangeMin="0" RangeMax="144">
          0 1 2 3 4 5
          6 7 8 9 10 11
          12 13 14 15 16 17
          18 19 20 21 22 23
          24 25 26 27 28 29
          30 31 32 33 34 35
          36 37 38 39 40 41
          42 43 44 45 46 47
          48 49 50 51 52 53
          54 55 56 57 58 59
          60 61 62 63 64 65
          66 67 68 69 70 71
          72 73 74 75 76 77
          78 79 80 81 82 83
          84 85 86 87 88 89
          90 91 92 93 94 95
          96 97 98 99 100 101
          102 103 104 105 106 107
          108 109 110 111 112 113
          114 115 116 117 118 119
          120 121 122 123 124 125
          126 127 128 129 130 131
          132 133 134 135 136 137
          138 139 140 141 142 143
          144
        </DataArray>
        <DataArray type="Int32" Name="Type" format="ascii" RangeMin="-1" RangeMax="-1">
          -1 -1 -1 -1 -1 -1
          -1 -1 -1 -1 -1 -1
          -1 -1 -1 -1 -1 -1
          -1 -1 -1 -1 -1 -1
          -1 -1 -1 -1 -1 -1
          -1 -1 -1 -1 -1 -1
          -1 -1 -1 -1 -1 -1
          -1 -1 -1 -1 -1 -1
          -1 -1 -1 -1 -1 -1
          -1 -1 -1 -1 -1 -1
          -1 -1 -1 -1 -1 -1
          -1 -1 -1 -1 -1 -1
          -1 -1 -1 -1 -1 -1
          -1 -1 -1 -1 -1 -1
          -1 -1 -1 -1 -1 -1
          -1 -1 -1 -1 -1 -1
          -1 -1 -1 -1 -1 -1
          -1 -1 -1 -1 -1 -1
          -1 -1 -1 -1 -1 -1
          -1 -1 -1 -1 -1 -1
          -1 -1 -1 -1 -1 -1
          -1 -1 -1 -1 -1 -1
          -1 -1 -1 -1 -1 -1
          -1 -1 -1 -1 -1 -1
          -1
        </DataArray>
        <DataArray type="Int32" Name="RegionSize" format="ascii" RangeMin="0" RangeMax="1186">
          1 23 1 0 0 3
          1 366 384 417 374 366
          363 358 360 369 355 353
          342 342 330 333 324 325
          170 325 318 310 297 288
          181 360 0 1 0 0
          20 1 2 12 0 0
          141 130 243 163 128 124
          116 105 96 23 87 83
          48 49 51 45 39 54
          72 32 75 41 0 0
          28 65 0 4 14 4
          11 7 3 7 5 249
          181 0 80 77 146 10
          95 55 6 5 109 612
          86 67 5 35 315 40
          62 90 21 9 104 93
          37 45 95 98 107 8
          70 79 413 48 84 42
          0 52 13 47 0 94
          87 93 508 93 87 165
          250 107 309 133 103 60
          142 6 132 1186 172 533
          188 258 185 140 193 203
          169
        </DataArray>
        <DataArray type="Float64" Name="RegionSpan" format="ascii" RangeMin="1" RangeMax="57.870545185">
          1.4142135624 8.0622577483 1 1 1 2
          1.4142135624 22.022715546 20.518284529 21.931712199 20.615528128 19.104973175
          17.691806013 19.798989873 19.104973175 19.104973175 18.384776311 19.104973175
          19.104973175 19.104973175 17.691806013 19.209372712 18.439088915 19.209372712
          11.045361017 19.209372712 18.439088915 18.439088915 17.804493815 17.691806013
          18.601075238 17.804493815 1 2 1 1
          6.7082039325 1.4142135624 1 5.6568542495 1 1
          7.2801098893 7.6157731059 8.0622577483 6.3245553203 7.2801098893 7.6157731059
          7.2801098893 7.2801098893 7.0710678119 8 6.0827625303 7.0710678119
          7.0710678119 7.0710678119 7.0710678119 7.0710678119 6.0827625303 7.0710678119
          6.3245553203 6.0827625303 6.3245553203 6.0827625303 1 1
          7.0710678119 6.0827625303 1 5 15 3
          4.2426406871 3 3 3 5 17.691806013
          16.970562748 4.1231056256 27 28 13.03840481 2.2360679775
          6.7082039325 7.0710678119 14.035668848 11 7.8102496759 27.658633372
          27 28 1.4142135624 14.035668848 28.653097564 25
          28 28 7.6157731059 14.035668848 28 28
          3 13.03840481 28 28 11.045361017 14.035668848
          28 28 49.335585534 14.035668848 28 28
          21 14.035668848 28 28.160255681 1 14.035668848
          28.160255681 26 57.870545185 14.035668848 25.709920264 28
          28 14.035668848 28.160255681 30.149626863 14.035668848 25.961509971
          14.035668848 25.298221281 13 24.738633754 15.033296378 15.033296378
          13.03840481 14 14 14 14 14
          14
        </DataArray>
      </CellData>
      <Points>
        <DataArray type="Float32" Name="Points" NumberOfComponents="3" format="ascii" RangeMin="0" RangeMax="400.80543908">
          26 19 0 25 20 0
          29 31 0 37 30 0
          26 19 0 27 19 0
          50 18 0 49 18 0
          50 18 0 50 19 0
          25 30 0 27 30 0
          25 30 0 24 29 0
          50 49 0 64 32 0
          106 46 0 91 32 0
          93 3 0 77 18 0
          121 3 0 105 16 0
          134 46 0 120 33 0
          147 3 0 134 15 0
          162 49 0 148 35 0
          175 0 0 162 14 0
          190 49 0 176 36 0
          203 0 0 190 13 0
          218 49 0 204 36 0
          231 0 0 217 13 0
          246 49 0 232 36 0
          259 0 0 246 12 0
          274 49 0 259 37 0
          287 0 0 273 12 0
          302 49 0 287 37 0
          302 1 0 301 12 0
          330 49 0 315 37 0
          343 0 0 329 12 0
          357 49 0 343 37 0
          371 0 0 357 11 0
          384 49 0 371 37 0
          384 49 0 399 38 0
          371 0 0 385 11 0
          302 1 0 302 0 0
          0 16 0 0 18 0
          36 23 0 36 24 0
          29 23 0 29 24 0
          23 23 0 29 26 0
          30 27 0 29 26 0
          31 24 0 30 24 0
          40 22 0 36 26 0
          51 28 0 50 28 0
          50 27 0 50 28 0
          92 22 0 99 24 0
          106 27 0 113 24 0
          63 21 0 70 25 0
          78 27 0 84 25 0
          120 22 0 127 24 0
          134 27 0 141 24 0
          148 22 0 155 24 0
          162 26 0 169 24 0
          176 23 0 183 24 0
          399 24 0 391 24 0
          190 26 0 196 25 0
          204 23 0 211 24 0
          315 24 0 322 25 0
          301 25 0 308 24 0
          287 24 0 294 25 0
          329 25 0 336 24 0
          343 24 0 349 25 0
          273 25 0 280 24 0
          232 23 0 238 25 0
          371 24 0 377 25 0
          218 26 0 224 24 0
          357 25 0 363 24 0
          259 23 0 259 24 0
          260 24 0 259 24 0
          384 25 0 391 24 0
          246 25 0 252 24 0
          0 49 0 0 48 0
          0 43 0 0 48 0
          0 0 0 0 15 0
          93 0 0 93 3 0
          109 49 0 106 46 0
          121 0 0 121 3 0
          134 49 0 134 46 0
          147 0 0 147 3 0
          38 0 0 43 0 0
          38 6 0 26 19 0
          38 6 0 50 18 0
          29 31 0 25 30 0
          357 49 0 384 49 0
          343 0 0 371 0 0
          315 0 0 302 1 0
          29 26 0 30 24 0
          50 28 0 47 22 0
          259 24 0 266 25 0
          391 24 0 377 25 0
          0 48 0 0 37 0
          43 0 0 38 6 0
          50 49 0 29 31 0
          330 49 0 357 49 0
          315 0 0 343 0 0
          30 24 0 29 23 0
          377 25 0 363 24 0
          57 25 0 43 0 0
          57 25 0 50 49 0
          302 49 0 330 49 0
          287 0 0 315 0 0
          29 23 0 36 26 0
          363 24 0 349 25 0
          274 49 0 302 49 0
          259 0 0 287 0 0
          36 26 0 36 23 0
          349 25 0 336 24 0
          246 49 0 274 49 0
          231 0 0 259 0 0
          36 23 0 47 22 0
          336 24 0 322 25 0
          218 49 0 246 49 0
          203 0 0 231 0 0
          47 22 0 0 37 0
          322 25 0 308 24 0
          190 49 0 218 49 0
          175 0 0 203 0 0
          0 37 0 0 16 0
          308 24 0 294 25 0
          162 49 0 190 49 0
          147 3 0 175 0 0
          0 16 0 0 15 0
          294 25 0 280 24 0
          134 46 0 162 49 0
          121 3 0 147 3 0
          0 15 0 57 25 0
          280 24 0 266 25 0
          63 0 0 57 25 0
          106 46 0 134 46 0
          93 3 0 121 3 0
          266 25 0 252 24 0
          78 49 0 106 46 0
          63 0 0 93 3 0
          252 24 0 238 25 0
          70 25 0 63 0 0
          238 25 0 224 24 0
          78 49 0 70 25 0
          224 24 0 211 24 0
          84 25 0 78 49 0
          211 24 0 196 25 0
          99 24 0 84 25 0
          196 25 0 183 24 0
          113 24 0 99 24 0
          183 24 0 169 24 0
          127 24 0 113 24 0
          169 24 0 155 24 0
          141 24 0 127 24 0
          155 24 0 141 24 0
        </DataArray>
      </Points>
      <Verts>
        <DataArray type="Int64" Name="connectivity" format="ascii" RangeMin="1e+299" RangeMax="-1e+299">
        </DataArray>
        <DataArray type="Int64" Name="offsets" format="ascii" RangeMin="1e+299" RangeMax="-1e+299">
        </DataArray>
      </Verts>
      <Lines>
        <DataArray type="Int64" Name="connectivity" format="ascii" RangeMin="0" RangeMax="289">
          0 1 2 3 4 5
          6 7 8 9 10 11
          12 13 14 15 16 17
          18 19 20 21 22 23
          24 25 26 27 28 29
          30 31 32 33 34 35
          36 37 38 39 40 41
          42 43 44 45 46 47
          48 49 50 51 52 53
          54 55 56 57 58 59
          60 61 62 63 64 65
          66 67 68 69 70 71
          72 73 74 75 76 77
          78 79 80 81 82 83
          84 85 86 87 88 89
          90 91 92 93 94 95
          96 97 98 99 100 101
          102 103 104 105 106 107
          108 109 110 111 112 113
          114 115 116 117 118 119
          120 121 122 123 124 125
          126 127 128 129 130 131
          132 133 134 135 136 137
          138 139 140 141 142 143
          144 145 146 147 148 149
          150 151 152 153 154 155
          156 157 158 159 160 161
          162 163 164 165 166 167
          168 169 170 171 172 173
          174 175 176 177 178 179
          180 181 182 183 184 185
          186 187 188 189 190 191
          192 193 194 195 196 197
          198 199 200 201 202 203
          204 205 206 207 208 209
          210 211 212 213 214 215
          216 217 218 219 220 221
          222 223 224 225 226 227
          228 229 230 231 232 233
          234 235 236 237 238 239
          240 241 242 243 244 245
          246 247 248 249 250 251
          252 253 254 255 256 257
          258 259 260 261 262 263
          264 265 266 267 268 269
          270 271 272 273 274 275
          276 277 278 279 280 281
          282 283 284 285 286 287
          288 289
        </DataArray>
        <DataArray type="Int64" Name="offsets" format="ascii" RangeMin="2" RangeMax="290">
          2 4 6 8 10 12
          14 16 18 20 22 24
          26 28 30 32 34 36
          38 40 42 44 46 48
          50 52 54 56 58 60
          62 64 66 68 70 72
          74 76 78 80 82 84
          86 88 90 92 94 96
          98 100 102 104 106 108
          110 112 114 116 118 120
          122 124 126 128 130 132
          134 136 138 140 142 144
          146 148 150 152 154 156
          158 160 162 164 166 168
          170 172 174 176 178 180
          182 184 186 188 190 192
          194 196 198 200 202 204
          206 208 210 212 214 216
          218 220 222 224 226 228
          230 232 234 236 238 240
          242 244 246 248 250 252
          254 256 258 260 262 264
          266 268 270 272 274 276
          278 280 282 284 286 288
          290
        </DataArray>
      </Lines>
      <Strips>
        <DataArray type="Int64" Name="connectivity" format="ascii" RangeMin="0" RangeMax="289">
        </DataArray>
        <DataArray type="Int64" Name="offsets" format="ascii" RangeMin="2" RangeMax="290">
        </DataArray>
      </Strips>
      <Polys>
        <DataArray type="Int64" Name="connectivity" format="ascii" RangeMin="0" RangeMax="289">
        </DataArray>
        <DataArray type="Int64" Name="offsets" format="ascii" RangeMin="2" RangeMax="290">
        </DataArray>
      </Polys>
    </Piece>
  </PolyData>
</VTKFile>
